9
Lattice="50.0 0.0 0.0 0.0 50.0 0.0 0.0 0.0 50.0" Properties=species:S:1:pos:R:3:momenta:R:3:forces:R:3 target_atoms="0 1 2 3 4 5 6 7 8" energy=-956.5536894987745 stress="0.0 0.0 0.0 0.0 0.0 0.0 0.0 0.0 0.0" pbc="T T T"
C        0.00000000       0.71495094       1.31902342       0.00000000       0.00000000       0.00000000       0.28172916       0.16926756      -0.61495650
C        0.00000000      -0.71495094       1.31902342       0.00000000       0.00000000       0.00000000       0.22230068      -0.52045303      -0.01392422
C        0.00000000      -1.24055335       0.05119100       0.00000000       0.00000000       0.00000000       5.02973122       0.50211232      -0.29583681
C        0.00000000       1.24055335       0.05119100       0.00000000       0.00000000       0.00000000       4.75651035      -0.89787557       0.31465780
S        0.64560000       0.00000000      -1.15285178       0.00000000       0.00000000       0.00000000     -10.07126895      -0.02486329       1.25434877
H        0.00000000       1.32194923       2.21441154       0.00000000       0.00000000       0.00000000      -0.26686253      -0.10223838      -0.33524411
H        0.00000000      -1.32194923       2.21441154       0.00000000       0.00000000       0.00000000      -0.30838379       0.31530932      -0.23919900
H        0.00000000       2.27909549      -0.24288695       0.00000000       0.00000000       0.00000000       0.47327739      -0.01382235       0.06933854
H        0.00000000      -2.27909549      -0.24288695       0.00000000       0.00000000       0.00000000       0.35468371       0.21489385       0.05357048
9
Lattice="50.0 0.0 0.0 0.0 50.0 0.0 0.0 0.0 50.0" Properties=species:S:1:pos:R:3:momenta:R:3:forces:R:3 target_atoms="1 0 6 5 4 2 3 7 8" energy=-956.4911033109183 stress="0.0 0.0 0.0 0.0 0.0 0.0 0.0 0.0 0.0" pbc="T T T"
C       -0.00018370       0.71660037       1.32002195      -0.10147303       0.55555354       0.37957339       0.27095984      -0.27711609      -1.62206797
C       -0.00018370      -0.71660037       1.32002195      -0.10147303      -0.55555354       0.37957339      -0.00837151       0.42418886      -0.66127750
C       -0.00016280      -1.23955374       0.05041822      -0.07672181       0.15958339      -0.39968152       5.07185104      -0.34399049       0.16996073
C       -0.00016280       1.23955374       0.05041822      -0.07672181      -0.15958339      -0.39968152       4.90146402       0.44877941      -0.21273155
S        0.64592171      -0.00000000      -1.15346938       0.29240166      -0.00000000      -0.74062581     -10.28081387      -0.29428283       0.83834424
H        0.00093765       1.31699548       2.19895330       0.02993901      -0.06310617      -0.39189257      -0.37685125       0.16548238       0.37109557
H        0.00093765      -1.31699548       2.19895330       0.02993901       0.06310617      -0.39189257      -0.19766488      -0.28737376       0.39973150
H       -0.00192498       2.31064497      -0.22029718       0.00205500       0.66931853       0.78231361       0.27299153      -1.22679168       0.30976139
H       -0.00192498      -2.31064497      -0.22029718       0.00205500      -0.66931853       0.78231361       0.36174036       1.24461457       0.16670674
9
Lattice="50.0 0.0 0.0 0.0 50.0 0.0 0.0 0.0 50.0" Properties=species:S:1:pos:R:3:momenta:R:3:forces:R:3 target_atoms="6 5 4 1 0 8 7 2 3" energy=-956.4883821723159 stress="0.0 0.0 0.0 0.0 0.0 0.0 0.0 0.0 0.0" pbc="T T T"
C       -0.00096191       0.71870391       1.32116595      -0.26803267       0.23889608       0.04726783       0.39687706      -0.45569876      -1.85392493
C       -0.00096191      -0.71870391       1.32116595      -0.26803267      -0.23889608       0.04726783      -0.01067414       0.36036893      -1.37175049
C       -0.00045691      -1.23952738       0.04870221      -0.10041891      -0.18963321      -0.32158746       4.54151469      -0.78327635      -0.09836887
C       -0.00045691       1.23952738       0.04870221      -0.10041891       0.18963321      -0.32158746       5.09774205       0.25486062       0.23190684
S        0.64599643       0.00000000      -1.15459325      -0.27322913       0.00000000      -0.60315474     -10.08479295       0.02634718       1.34636856
H        0.00288438       1.32498880       2.18496832       0.04346799       0.48890035      -0.02875937      -0.23163070       0.46286905       0.60313971
H        0.00288438      -1.32498880       2.18496832       0.04346799      -0.48890035      -0.02875937      -0.13857116      -0.72020719       0.76318575
H        0.00771736       2.32640387      -0.18162379       0.46159816      -0.27968167       0.60465636       0.31857153      -1.56180645      -0.16125189
H        0.00771736      -2.32640387      -0.18162379       0.46159816       0.27968167       0.60465636       0.21159152       1.65875761      -0.36172339
9
Lattice="50.0 0.0 0.0 0.0 50.0 0.0 0.0 0.0 50.0" Properties=species:S:1:pos:R:3:momenta:R:3:forces:R:3 target_atoms="5 6 4 8 7 0 1 3 2" energy=-956.5836220234011 stress="0.0 0.0 0.0 0.0 0.0 0.0 0.0 0.0 0.0" pbc="T T T"
C       -0.00199207       0.71931467       1.32038659      -0.26129151      -0.02852359      -0.24477962       0.03529292       0.49741697      -0.46731346
C       -0.00199207      -0.71931467       1.32038659      -0.26129151       0.02852359      -0.24477962       0.01799752      -0.01390468      -0.62740578
C       -0.00042290      -1.24027968       0.04794230       0.03046811       0.07899083       0.36575981       5.08171893       0.17563876       0.67989229
C       -0.00042290       1.24027968       0.04794230       0.03046811      -0.07899083       0.36575981       5.00872531       0.35483335      -0.15206894
S        0.64504649       0.00000000      -1.15545317      -0.89715429       0.00000000      -0.50961353      -9.68966579       0.13256506       1.25726954
H        0.00078401       1.35131292       2.19574611      -0.09736734       0.19425868       0.12512553      -0.32827385      -0.33642682      -0.03365734
H        0.00078401      -1.35131292       2.19574611      -0.09736734      -0.19425868       0.12512553      -0.08475539       0.29287335      -0.02865248
H        0.03679426       2.30294915      -0.16038493       0.77676788      -0.18354668       0.00870105       0.11369162      -0.60073316      -0.53677953
H        0.03679426      -2.30294915      -0.16038493       0.77676788       0.18354668       0.00870105       0.05557131       0.48267169      -0.53093284
9
Lattice="50.0 0.0 0.0 0.0 50.0 0.0 0.0 0.0 50.0" Properties=species:S:1:pos:R:3:momenta:R:3:forces:R:3 target_atoms="6 5 1 0 4 7 8 2 3" energy=-956.5972277164134 stress="0.0 0.0 0.0 0.0 0.0 0.0 0.0 0.0 0.0" pbc="T T T"
C       -0.00370416       0.71752349       1.31833457      -0.13905756      -0.35755095      -0.23831890      -0.34378531       0.84587243       0.04749969
C       -0.00370416      -0.71752349       1.31833457      -0.13905756       0.35755095      -0.23831890      -0.20319121      -0.57462103       0.07531173
C        0.00149494      -1.23903639       0.05213618       0.36616050       0.16953999       0.67431831       5.32964014       0.03710508       0.12004122
C        0.00149494       1.23903639       0.05213618       0.36616050      -0.16953999       0.67431831       5.56515321      -0.34629831       0.19337988
S        0.64115247       0.00000000      -1.15646278      -1.62919660       0.00000000      -0.17248835      -9.59114111      -0.31307966       1.11417735
H       -0.01934837       1.36219508       2.20270464      -0.32428681       0.05149020       0.02640843      -0.17103545      -0.67728005      -0.46216303
H       -0.01934837      -1.36219508       2.20270464      -0.32428681      -0.05149020       0.02640843      -0.05419783       0.64290439      -0.51459091
H        0.11640079       2.29063625      -0.17680968       0.91178217      -0.05917821      -0.37616366      -0.36686302      -0.29409977      -0.33546162
H        0.11640079      -2.29063625      -0.17680968       0.91178217       0.05917821      -0.37616366      -0.41599270       0.29750700      -0.29493589
9
Lattice="50.0 0.0 0.0 0.0 50.0 0.0 0.0 0.0 50.0" Properties=species:S:1:pos:R:3:momenta:R:3:forces:R:3 target_atoms="6 5 0 1 4 8 7 3 2" energy=-956.5836220234011 stress="0.0 0.0 0.0 0.0 0.0 0.0 0.0 0.0 0.0" pbc="T T T"
C       -0.00476667       0.71414099       1.31662256      -0.19410807      -0.49394506      -0.10963265      -0.55537889       0.91229946       0.73586521
C       -0.00476667      -0.71414099       1.31662256      -0.19410807       0.49394506      -0.10963265      -0.52873712      -0.73549497       0.73366434
C        0.00688282      -1.23834007       0.05775263       0.99698758      -0.07550330       0.67782910       5.51388541       0.07631498      -0.87621660
C        0.00688282       1.23834007       0.05775263       0.99698758       0.07550330       0.67782910       5.84987720      -0.00512504      -0.67824164
S        0.63513869       0.00000000      -1.15660405      -2.24756995       0.00000000       0.05090513      -9.73013496       0.52107523       1.44463613
H       -0.05956315       1.37271248       2.20021592      -0.45254513       0.22102541      -0.13375176       0.12262672      -1.07250491      -0.78274156
H       -0.05956315      -1.37271248       2.20021592      -0.45254513      -0.22102541      -0.13375176      -0.05742097       0.84267398      -0.87800608
H        0.20071161       2.27455193      -0.21859835       0.77345059      -0.34591377      -0.45989725      -1.01668112      -0.36557644       0.24730826
H        0.20071161      -2.27455193      -0.21859835       0.77345059       0.34591377      -0.45989725      -0.87623717       0.43491087      -0.00101333
9
Lattice="50.0 0.0 0.0 0.0 50.0 0.0 0.0 0.0 50.0" Properties=species:S:1:pos:R:3:momenta:R:3:forces:R:3 target_atoms="4 6 5 8 7 0 1 2 3" energy=-956.5781797461963 stress="0.0 0.0 0.0 0.0 0.0 0.0 0.0 0.0 0.0" pbc="T T T"
C       -0.00711909       0.71039524       1.31704040      -0.45769241      -0.36755183       0.30698284      -0.64720842       1.66417750       0.70443090
C       -0.00711909      -0.71039524       1.31704040      -0.45769241       0.36755183       0.30698284       0.17186026      -1.15186973       0.99497072
C        0.01743374      -1.23898707       0.06301739       1.59428341      -0.07697670       0.66750872       6.11017570       0.88662442      -1.78848006
C        0.01743374       1.23898707       0.06301739       1.59428341       0.07697670       0.66750872       5.79860940      -0.62692242      -1.74063183
S        0.62745236       0.00000000      -1.15630621      -2.67773388       0.00000000       0.00540045      -9.14721440      -0.03026878       2.25563412
H       -0.10494825       1.40198418       2.17123989      -0.42443577       0.43402527      -0.56800186       0.53005353      -1.10067392      -0.49073930
H       -0.10494825      -1.40198418       2.17123989      -0.42443577      -0.43402527      -0.56800186       0.34503127       1.29891113      -0.47787041
H        0.27064014       2.24064446      -0.26207086       0.62671172      -0.26030059      -0.40918992      -1.10384666       0.13185132       0.44153095
H        0.27064014      -2.24064446      -0.26207086       0.62671172       0.26030059      -0.40918992      -1.12356188      -0.06888346       0.24467802
9
Lattice="50.0 0.0 0.0 0.0 50.0 0.0 0.0 0.0 50.0" Properties=species:S:1:pos:R:3:momenta:R:3:forces:R:3 target_atoms="7 8 6 5 3 2 0 1" energy=-956.4149114300501 stress="0.0 0.0 0.0 0.0 0.0 0.0 0.0 0.0 0.0" pbc="T T T"
C       -0.01116649       0.70901517       1.31954013      -0.50743961       0.23300293       0.28990316      -0.33671632       1.19900834      -0.53436784
C       -0.01116649      -0.70901517       1.31954013      -0.50743961      -0.23300293       0.28990316      -0.02166643      -1.80166982       0.08539560
C        0.03263694      -1.23922510       0.06828798       2.10177481       0.02475105       0.63245291       5.54448154       0.91218119      -2.20454115
C        0.03263694       1.23922510       0.06828798       2.10177481      -0.02475105       0.63245291       5.72091065      -0.92743298      -2.37203311
S        0.61827149       0.00000000      -1.15584488      -3.30003818       0.00000000       0.27298112      -9.20804671      -0.15922123       2.12962948
H       -0.15024792       1.44313344       2.10591059      -0.51332674       0.37831805      -0.78842285       0.64500241      -0.93938861       0.75503021
H       -0.15024792      -1.44313344       2.10591059      -0.51332674      -0.37831805      -0.78842285       0.84328076       1.15201371       0.61846863
H        0.32901216       2.21592773      -0.29666647       0.56901064      -0.24196195      -0.27042378      -1.36627918       0.47662805       0.69785916
H        0.32901216      -2.21592773      -0.29666647       0.56901064       0.24196195      -0.27042378      -1.40407954      -0.40823825       0.81592937
9
Lattice="50.0 0.0 0.0 0.0 50.0 0.0 0.0 0.0 50.0" Properties=species:S:1:pos:R:3:momenta:R:3:forces:R:3 target_atoms="8 7 0 1 2 3 4" energy=-956.1645666786259 stress="0.0 0.0 0.0 0.0 0.0 0.0 0.0 0.0 0.0" pbc="T T T"
C       -0.01568526       0.71207126       1.32212123      -0.58720139       0.55718146       0.38277902      -0.61355782       0.32752206      -1.39532236
C       -0.01568526      -0.71207126       1.32212123      -0.58720139      -0.55718146       0.38277902      -0.23221280      -0.29552519      -1.32228246
C        0.05196882      -1.23858427       0.07217415       2.60733614       0.15852822       0.25479316       5.29945539       1.50411089      -2.96533577
C        0.05196882       1.23858427       0.07217415       2.60733614      -0.15852822       0.25479316       5.04918419      -1.65791429      -2.56931901
S        0.60725920       0.00000000      -1.15478424      -3.84322021       0.00000000       0.28450369      -8.72987291      -0.30532058       1.73776248
H       -0.20551347       1.47644515       2.03426796      -0.64313111       0.30264059      -0.60135247       0.75472682      -0.32535822       2.08258343
H       -0.20551347      -1.47644515       2.03426796      -0.64313111      -0.30264059      -0.60135247       0.73773183       0.52472620       1.97238080
H        0.38289562       2.19403741      -0.31895285       0.54460647      -0.21050385      -0.17847156      -1.72038696       0.57070781       0.99126833
H        0.38289562      -2.19403741      -0.31895285       0.54460647       0.21050385      -0.17847156      -1.53355516      -0.63757707       0.99102665
9
Lattice="50.0 0.0 0.0 0.0 50.0 0.0 0.0 0.0 50.0" Properties=species:S:1:pos:R:3:momenta:R:3:forces:R:3 target_atoms="0 1 2 3 4 5 6 7 8" energy=-959.5469419614549 stress="0.0 0.0 0.0 0.0 0.0 0.0 0.0 0.0 0.0" pbc="T T T"
C        0.00000000       0.71495094       1.31902342      -0.48179416      -0.45732703      -0.31446763      -0.05388518       0.21766344      -0.27094493
C        0.00000000      -0.71495094       1.31902342      -0.34795490       0.47541039       0.48930928       0.00830744      -0.18558173      -0.09155031
C        0.00000000      -1.24055335       0.05119100       0.20885566      -0.22973447      -0.04802275       0.12488620      -0.00802467       0.24861952
C        0.00000000       1.24055335       0.05119100       0.31817107       0.22535773      -0.65612869      -0.40968526      -0.06159798      -0.29860640
S        0.00000000       0.00000000      -1.15285178      -0.08604287       0.04014426       0.88825028      -0.04175816      -0.26253074       0.50569541
H        0.00000000       1.32194923       2.21441154       0.11765391      -0.44818275      -0.05250532      -0.05647994      -0.03345787      -0.12440129
H        0.00000000      -1.32194923       2.21441154       0.31481725      -0.16411992      -0.14449955      -0.01693277       0.21066232      -0.29036653
H        0.00000000       2.27909549      -0.24288695       0.02656904       0.56316947      -0.14826329       0.02356858      -0.34097973       0.06159232
H        0.00000000      -2.27909549      -0.24288695      -0.07027500      -0.00471766      -0.01367234      -0.08554935       0.21954446       0.17039010
9
Lattice="50.0 0.0 0.0 0.0 50.0 0.0 0.0 0.0 50.0" Properties=species:S:1:pos:R:3:momenta:R:3:forces:R:3 target_atoms="0 1 2 3 4 5 6 7 8" energy=-959.5469419614549 stress="0.0 0.0 0.0 0.0 0.0 0.0 0.0 0.0 0.0" pbc="T T T"
C        0.00000000       0.71495094       1.31902342      -0.48179416      -0.45732703      -0.31446763      -0.05388518       0.21766344      -0.27094493
C        0.00000000      -0.71495094       1.31902342      -0.34795490       0.47541039       0.48930928       0.00830744      -0.18558173      -0.09155031
C        0.00000000      -1.24055335       0.05119100       0.20885566      -0.22973447      -0.04802275       0.12488620      -0.00802467       0.24861952
C        0.00000000       1.24055335       0.05119100       0.31817107       0.22535773      -0.65612869      -0.40968526      -0.06159798      -0.29860640
S        0.00000000       0.00000000      -1.15285178      -0.08604287       0.04014426       0.88825028      -0.04175816      -0.26253074       0.50569541
H        0.00000000       1.32194923       2.21441154       0.11765391      -0.44818275      -0.05250532      -0.05647994      -0.03345787      -0.12440129
H        0.00000000      -1.32194923       2.21441154       0.31481725      -0.16411992      -0.14449955      -0.01693277       0.21066232      -0.29036653
H        0.00000000       2.27909549      -0.24288695       0.02656904       0.56316947      -0.14826329       0.02356858      -0.34097973       0.06159232
H        0.00000000      -2.27909549      -0.24288695      -0.07027500      -0.00471766      -0.01367234      -0.08554935       0.21954446       0.17039010
9
Lattice="50.0 0.0 0.0 0.0 50.0 0.0 0.0 0.0 50.0" Properties=species:S:1:pos:R:3:momenta:R:3:forces:R:3 target_atoms="0 1 2 3 4 5 6 7 8" energy=-959.5469419614549 stress="0.0 0.0 0.0 0.0 0.0 0.0 0.0 0.0 0.0" pbc="T T T"
C        0.00000000       0.71495094       1.31902342      -0.48179416      -0.45732703      -0.31446763      -0.05388518       0.21766344      -0.27094493
C        0.00000000      -0.71495094       1.31902342      -0.34795490       0.47541039       0.48930928       0.00830744      -0.18558173      -0.09155031
C        0.00000000      -1.24055335       0.05119100       0.20885566      -0.22973447      -0.04802275       0.12488620      -0.00802467       0.24861952
C        0.00000000       1.24055335       0.05119100       0.31817107       0.22535773      -0.65612869      -0.40968526      -0.06159798      -0.29860640
S        0.00000000       0.00000000      -1.15285178      -0.08604287       0.04014426       0.88825028      -0.04175816      -0.26253074       0.50569541
H        0.00000000       1.32194923       2.21441154       0.11765391      -0.44818275      -0.05250532      -0.05647994      -0.03345787      -0.12440129
H        0.00000000      -1.32194923       2.21441154       0.31481725      -0.16411992      -0.14449955      -0.01693277       0.21066232      -0.29036653
H        0.00000000       2.27909549      -0.24288695       0.02656904       0.56316947      -0.14826329       0.02356858      -0.34097973       0.06159232
H        0.00000000      -2.27909549      -0.24288695      -0.07027500      -0.00471766      -0.01367234      -0.08554935       0.21954446       0.17039010
9
Lattice="50.0 0.0 0.0 0.0 50.0 0.0 0.0 0.0 50.0" Properties=species:S:1:pos:R:3:momenta:R:3:forces:R:3 target_atoms="1 6 0 2 5 4 8 3 7" energy=-959.4190484471403 stress="0.0 0.0 0.0 0.0 0.0 0.0 0.0 0.0 0.0" pbc="T T T"
C       -0.00197008       0.71643822       1.32000735      -0.47564006       0.23861712       0.17103435       0.08285689      -1.57638975      -2.01490171
C       -0.00142280      -0.71636428       1.32329403      -0.33049700      -0.37839504       0.98849113       0.63659491       1.51359826      -2.09305297
C        0.00085402      -1.23911453       0.05100079       0.21919605       0.23521930      -0.20085544       0.42099349      -1.79659446       0.02603936
C        0.00130101       1.23909663       0.04851422       0.31217467       0.27064749      -0.98817622      -0.03566254       2.74305360      -0.12247039
S       -0.00013181       0.00006150      -1.15243376      -0.08497295       0.04076645      -0.43802956       0.02580606      -0.06316018       0.14998480
H        0.00573253       1.28993290       2.17748022       0.11169820      -0.18365705      -0.54198408      -0.07809315       1.21076342       1.72562687
H        0.01533906      -1.31976654       2.17299792       0.30577504      -0.16241851      -0.82474233      -0.07461805      -0.79145760       1.36898912
H        0.00129454       2.35793013      -0.22786579       0.02474662       1.06630724       0.95826937      -0.01293671      -2.80478065       0.36589989
H       -0.00342406      -2.33072030      -0.22130803      -0.08248057      -1.12708700       0.87599278       0.07428123       2.07148141       0.52090040
9
Lattice="50.0 0.0 0.0 0.0 50.0 0.0 0.0 0.0 50.0" Properties=species:S:1:pos:R:3:momenta:R:3:forces:R:3 target_atoms="5 0 6 4 1 8 2 7 3" energy=-958.956454884726 stress="0.0 0.0 0.0 0.0 0.0 0.0 0.0 0.0 0.0" pbc="T T T"
C       -0.00384876       0.71730586       1.31977897      -0.42592642       0.07480055      -0.59380441       0.14275023      -1.77704379      -2.56403796
C       -0.00258551      -0.71790456       1.32742733      -0.20432365      -0.15802291       0.86932399      -0.02197296       2.47914527      -4.11056177
C        0.00183996      -1.23912236       0.05018068       0.28036916      -0.30316184      -0.21537705      -0.45281707      -2.50222350       0.28477849
C        0.00247804       1.24003913       0.04470590       0.23866067       0.02200531      -0.56041271       0.21223173       3.73205936       0.61227227
S       -0.00026137      -0.00008023      -1.15303242      -0.08799939      -0.28958197       0.01219353      -0.08517243      -0.09866352       0.09209949
H        0.01088924       1.29031996       2.16485842       0.09199912       0.36368761      -0.19452418      -0.27182476       1.54427152       2.03188127
H        0.02858341      -1.32883161       2.12589542       0.21021203      -0.52776358      -1.15793247       0.00261127      -1.93473985       3.37852751
H        0.00242910       2.40833623      -0.18247459       0.02529974       1.15531062       0.89510372       0.05207358      -4.10234967       0.13611267
H       -0.00837196      -2.37106284      -0.17931320      -0.12829125      -0.33727379       0.94542959       0.04436655       2.92121564       0.07779387
9
Lattice="50.0 0.0 0.0 0.0 50.0 0.0 0.0 0.0 50.0" Properties=species:S:1:pos:R:3:momenta:R:3:forces:R:3 target_atoms="4 5 2 8 6 0 7 1 3" energy=-958.5047458767216 stress="0.0 0.0 0.0 0.0 0.0 0.0 0.0 0.0 0.0" pbc="T T T"
C       -0.00562521       0.71732307       1.31712833      -0.45133650      -0.17249485      -0.60795869      -0.18073417      -1.84265321      -1.98907240
C       -0.00341431      -0.71808283       1.33052457      -0.20724120       0.21978380       0.65356642       0.69212045       3.11929859      -6.39993905
C        0.00302867      -1.24073587       0.04936177       0.31474413      -0.57192967      -0.14132172      -0.01513105      -2.08777706       0.88186788
C        0.00349166       1.24029648       0.04275185       0.25834242       0.18874126      -0.31916955       0.11770665       4.59718936       0.53260920
S       -0.00038294      -0.00048922      -1.15301044      -0.06572586      -0.19860900       0.03129885      -0.18837960       0.07961884       0.06281977
H        0.01467940       1.31165260       2.15709613       0.05713575       0.65849467      -0.18903093      -0.20611661       1.11541148       2.21275840
H        0.03989522      -1.35875855       2.07281788       0.27140010      -0.90284368      -1.08536796       0.00877780      -2.83317078       4.89552991
H        0.00350371       2.46000485      -0.14049364       0.01942569       0.89322425       0.73570145      -0.00800266      -4.84658125      -0.21354916
H       -0.01588071      -2.38305044      -0.13343330      -0.19674454      -0.11436679       0.92228212       0.06911640       3.22434358      -0.34181328
9
Lattice="50.0 0.0 0.0 0.0 50.0 0.0 0.0 0.0 50.0" Properties=species:S:1:pos:R:3:momenta:R:3:forces:R:3 target_atoms="7 3 8 2 6 1" energy=-958.2353531550804 stress="0.0 0.0 0.0 0.0 0.0 0.0 0.0 0.0 0.0" pbc="T T T"
C       -0.00737322       0.71646045       1.31454885      -0.40029006      -0.17736445      -0.59177061       0.21320823      -0.74545542      -1.14768912
C       -0.00421551      -0.71690194       1.33251357      -0.19204367       0.29013896       0.19638029      -0.06910303       3.27130736      -6.39263711
C        0.00434121      -1.24334806       0.04885258       0.32930612      -0.71413515      -0.16046512      -0.41586517      -1.97493648       1.74382514
C        0.00452700       1.24155199       0.04145898       0.24691579       0.49678942      -0.35392679      -0.20537871       5.12308798       1.15458481
S       -0.00048551      -0.00078023      -1.15296898      -0.06658479      -0.14471202       0.01293929      -0.35209872      -0.25702292       0.10464493
H        0.01664709       1.34581923       2.14993107       0.02230411       0.66127390      -0.08183179      -0.09762531       0.54675541       1.27986440
H        0.05295521      -1.40676733       2.02658970       0.27401704      -1.00161191      -0.67608502       0.04555136      -2.79559153       5.31076824
H        0.00427625       2.49694657      -0.10468601       0.01139277       0.51716794       0.72658813       0.04213735      -5.49470498      -0.30629040
H       -0.02601972      -2.38452078      -0.08865750      -0.22501730       0.07245332       0.92817162       0.09278803       3.06937290      -0.72662466
9
Lattice="50.0 0.0 0.0 0.0 50.0 0.0 0.0 0.0 50.0" Properties=species:S:1:pos:R:3:momenta:R:3:forces:R:3 target_atoms="3 8 6 2 1 4 0 5" energy=-958.1782092444292 stress="0.0 0.0 0.0 0.0 0.0 0.0 0.0 0.0 0.0" pbc="T T T"
C       -0.00896649       0.71568621       1.31202139      -0.38207150      -0.15646830      -0.62415947       0.78639767      -0.53795710      -0.43279074
C       -0.00494610      -0.71547221       1.33260558      -0.15060916       0.31903699      -0.13406714       0.40813695       1.60201336      -6.19599913
C        0.00566721      -1.24643334       0.04825387       0.31042440      -0.75311294      -0.21858469      -0.55562572      -1.19648351       1.90606176
C        0.00551273       1.24415921       0.04012141       0.23132310       0.79581157      -0.31015557      -0.15326141       5.11119406       1.06766095
S       -0.00057820      -0.00099758      -1.15295145      -0.04969373      -0.12512009       0.01173338       0.41612228      -0.26546025       0.08963278
H        0.01708902       1.37765931       2.14759258      -0.00252696       0.49212793      -0.00237264      -0.00536404      -0.10228363       0.36701215
H        0.06661483      -1.45926277       2.00113982       0.28339499      -0.97846055      -0.30425334      -0.37626555      -1.61322852       4.37754514
H        0.00477071       2.51523199      -0.07040787       0.00967764       0.20557866       0.65803293      -0.16281975      -5.50401237      -0.59264447
H       -0.03752309      -2.37735199      -0.04361262      -0.24991878       0.20060674       0.92382653       0.21346946       2.44821490      -1.15577266
9
Lattice="50.0 0.0 0.0 0.0 50.0 0.0 0.0 0.0 50.0" Properties=species:S:1:pos:R:3:momenta:R:3:forces:R:3 target_atoms=7 energy=-958.0884116705487 stress="0.0 0.0 0.0 0.0 0.0 0.0 0.0 0.0 0.0" pbc="T T T"
C       -0.01055526       0.71502802       1.30946977      -0.39729577      -0.15769134      -0.58469297       0.26401580       0.30708744       0.16880116
C       -0.00546016      -0.71404430       1.33144081      -0.07329577       0.31102822      -0.38298940       1.11915501       0.14587052      -4.74769147
C        0.00695446      -1.24957032       0.04751450       0.32259304      -0.73110052      -0.12211012      -0.51238336      -0.03013410       2.24421842
C        0.00642333       1.24803530       0.03897442       0.20785889       1.11353433      -0.24971942      -0.53751487       4.54274368       1.44910985
S       -0.00064522      -0.00119860      -1.15294227      -0.03647243      -0.11611868      -0.00940797       0.13679967      -0.39531743      -0.19028890
H        0.01757332       1.40012600       2.14893262       0.02426934       0.39063974       0.03480229      -0.15553684      -0.72982311       0.13628802
H        0.07957525      -1.50827902       1.99223997       0.23159301      -0.94624005      -0.07628845      -0.48289280       0.08175697       3.10481299
H        0.00480053       2.51795290      -0.04010676      -0.01010796      -0.11846648       0.56063128      -0.05938117      -5.65946128      -0.85118433
H       -0.04999836      -2.36510864       0.00011446      -0.26914234       0.25441478       0.82977477       0.43612752       1.66587957      -1.62721532
9
Lattice="50.0 0.0 0.0 0.0 50.0 0.0 0.0 0.0 50.0" Properties=species:S:1:pos:R:3:momenta:R:3:forces:R:3 target_atoms="4 5 3 8 0 6 1 2" energy=-958.0748059775365 stress="0.0 0.0 0.0 0.0 0.0 0.0 0.0 0.0 0.0" pbc="T T T"
C       -0.01221031       0.71444338       1.30722147      -0.40867688      -0.09783771      -0.46284249       0.67631331       0.91109104       0.83356713
C       -0.00558113      -0.71280460       1.32941287       0.04287748       0.23223483      -0.57927926       0.41798479      -1.55173287      -3.21195087
C        0.00829258      -1.25251323       0.04724274       0.33396764      -0.64131626       0.03714382      -0.62045352       0.30102478       2.59923637