9
Lattice="50.0 0.0 0.0 0.0 50.0 0.0 0.0 0.0 50.0" Properties=species:S:1:pos:R:3:forces:R:3 energy=-962.24295 pbc="T T T"
C       -0.00200000       0.71640000       1.32000000       0.25060000      -5.09460000      -2.83400000
C       -0.00140000      -0.71640000       1.32330000       0.71090000      -1.33380000      -2.27690000
C        0.00090000      -1.23910000       0.05100000       0.42110000      -4.75030000      -6.28500000
C        0.00130000       1.23910000       0.04850000      -0.24420000      25.52850000     -13.58300000
S       -0.00010000       0.00010000      -1.15240000       0.04360000       0.02530000     -28.94940000
H        0.00570000       1.28990000       2.17750000      -0.24250000      19.27960000       8.79560000
H        0.01530000      -1.31980000       2.17300000      -0.36820000      -8.43830000       1.02730000
H        0.00130000       2.35790000      -0.22790000      -0.07420000     -22.46580000      26.46840000
H       -0.00340000      -2.33070000      -0.22130000      -0.49700000      -2.75060000      17.63710000
9
Lattice="50.0 0.0 0.0 0.0 50.0 0.0 0.0 0.0 50.0" Properties=species:S:1:pos:R:3:forces:R:3 energy=-956.483309 pbc="T T T"
C       -0.00380000       0.71730000       1.31980000       1.36490000      -5.59470000     -21.90650000
C       -0.00260000      -0.71790000       1.32740000       3.25870000       8.90430000      -5.76210000
C        0.00180000      -1.23910000       0.05020000       1.59840000     -12.26740000      -0.60330000
C        0.00250000       1.24000000       0.04470000      -2.00310000      -8.49010000      15.10520000
S       -0.00030000      -0.00010000      -1.15300000      -0.13960000      -8.02480000      16.41020000
H        0.01090000       1.29030000       2.16490000      -0.56350000      14.48660000       2.62760000
H        0.02860000      -1.32880000       2.12590000      -2.50900000     -13.91520000      -7.78630000
H        0.00240000       2.40830000      -0.18250000       0.08200000       4.91840000      -1.48640000
H       -0.00840000      -2.37110000      -0.17930000      -1.08890000      19.98280000       3.40160000
9
Lattice="50.0 0.0 0.0 0.0 50.0 0.0 0.0 0.0 50.0" Properties=species:S:1:pos:R:3:forces:R:3 energy=-958.513089 pbc="T T T"
C       -0.00560000       0.71730000       1.31710000      -0.68800000      -7.19570000       1.63990000
C       -0.00340000      -0.71810000       1.33050000      -0.18540000      10.72550000      -4.23040000
C        0.00300000      -1.24070000       0.04940000       0.97890000      -7.22150000       2.40050000
C        0.00350000       1.24030000       0.04280000       0.42580000       5.12310000       6.46280000
S       -0.00040000      -0.00050000      -1.15300000       0.55520000       2.78390000       0.69030000
H        0.01470000       1.31170000       2.15710000      -0.84100000       8.98600000      -1.21020000
H        0.03990000      -1.35880000       2.07280000       1.59780000     -11.75340000       0.16250000
H        0.00350000       2.46000000      -0.14050000      -0.10710000      -6.80940000      -5.12740000
H       -0.01590000      -2.38310000      -0.13340000      -1.73620000       5.36170000      -0.78810000
9
Lattice="50.0 0.0 0.0 0.0 50.0 0.0 0.0 0.0 50.0" Properties=species:S:1:pos:R:3:forces:R:3 energy=-957.897738 pbc="T T T"
C       -0.00740000       0.71650000       1.31450000       1.10750000       1.36800000       1.59050000
C       -0.00420000      -0.71690000       1.33250000       0.15860000       0.05480000     -11.81110000
C        0.00430000      -1.24330000       0.04890000       0.33860000      -3.06670000      -1.46350000
C        0.00450000       1.24160000       0.04150000      -0.25590000       7.72690000      -1.53710000
S       -0.00050000      -0.00080000      -1.15300000       0.01510000       1.84280000      -0.57510000
H        0.01660000       1.34580000       2.14990000      -0.73630000      -1.62720000       2.65600000
H        0.05300000      -1.40680000       2.02660000       0.24330000      -0.66310000      11.10480000
H        0.00430000       2.49690000      -0.10470000      -0.18170000      -9.81480000      -0.33900000
H       -0.02600000      -2.38450000      -0.08870000      -0.68920000       4.17930000       0.37450000
9
Lattice="50.0 0.0 0.0 0.0 50.0 0.0 0.0 0.0 50.0" Properties=species:S:1:pos:R:3:forces:R:3 energy=-957.761554 pbc="T T T"
C       -0.00900000       0.71570000       1.31200000       0.30830000       1.33880000      -0.24650000
C       -0.00490000      -0.71550000       1.33260000       1.14270000      -1.24660000      -6.37570000
C        0.00570000      -1.24640000       0.04830000      -0.56430000       0.05750000      -2.93880000
C        0.00550000       1.24420000       0.04010000      -0.39670000       6.44220000       0.69050000
S       -0.00060000      -0.00100000      -1.15300000       0.44030000       0.68270000       0.01190000
H        0.01710000       1.37770000       2.14760000      -0.47230000      -6.57070000       1.85780000
H        0.06660000      -1.45930000       2.00110000       0.12410000       4.02950000       8.88060000
H        0.00480000       2.51520000      -0.07040000      -0.01920000      -6.91090000      -1.85240000
H       -0.03750000      -2.37740000      -0.04360000      -0.56300000       2.17760000      -0.02730000
9
Lattice="50.0 0.0 0.0 0.0 50.0 0.0 0.0 0.0 50.0" Properties=species:S:1:pos:R:3:forces:R:3 energy=-957.839573 pbc="T T T"
C       -0.01060000       0.71500000       1.30950000      -0.35640000       0.13330000       1.60120000
C       -0.00550000      -0.71400000       1.33140000       2.13470000      -1.55460000      -3.99640000
C        0.00700000      -1.24960000       0.04750000       0.31720000       1.46870000       2.39070000
C        0.00640000       1.24800000       0.03900000      -0.60410000       6.74410000       1.25360000
S       -0.00060000      -0.00120000      -1.15290000       0.29620000       0.61490000      -0.62730000
H        0.01760000       1.40010000       2.14890000       0.58350000      -2.86940000       0.29730000
H        0.07960000      -1.50830000       1.99220000      -1.40110000       2.43370000       4.33160000
H        0.00480000       2.51800000      -0.04010000      -0.43650000      -7.09830000      -2.49490000
H       -0.05000000      -2.36510000       0.00010000      -0.53350000       0.12760000      -2.75590000
9
Lattice="50.0 0.0 0.0 0.0 50.0 0.0 0.0 0.0 50.0" Properties=species:S:1:pos:R:3:forces:R:3 energy=-955.15104 pbc="T T T"
C       -0.01220000       0.71440000       1.30720000      -0.15980000       1.83820000       3.54250000
C       -0.00560000      -0.71280000       1.32940000       2.95080000      -2.88890000      -3.39350000
C        0.00830000      -1.25250000       0.04720000       0.27370000       3.19230000       4.21900000
C        0.00720000       1.25320000       0.03810000      -1.22560000       5.69070000       0.56250000
S       -0.00070000      -0.00140000      -1.15300000       0.69150000       0.92580000       0.10790000
H        0.01950000       1.41750000       2.15100000       0.58830000      -2.18590000      -0.74350000
H        0.08940000      -1.55370000       1.99220000      -1.89520000       3.12280000       1.51150000
H        0.00380000       2.50400000      -0.01480000      -0.47150000      -9.56710000      -2.28640000
H       -0.06370000      -2.35110000       0.03830000      -0.75220000      -0.12790000      -3.52000000
9
Lattice="50.0 0.0 0.0 0.0 50.0 0.0 0.0 0.0 50.0" Properties=species:S:1:pos:R:3:forces:R:3 energy=-956.094646 pbc="T T T"
C       -0.01390000       0.71420000       1.30550000       0.71370000       2.15780000       3.13960000
C       -0.00530000      -0.71200000       1.32670000       1.62210000      -1.32490000      -1.31580000
C        0.00960000      -1.25500000       0.04760000      -0.54910000       3.90530000       1.99370000
C        0.00780000       1.25920000       0.03740000      -0.72780000       3.11340000       1.02840000
S       -0.00070000      -0.00150000      -1.15300000       0.06930000       1.03640000      -1.60830000
H        0.02260000       1.43030000       2.15190000       0.14660000      -2.78160000       0.98140000
H        0.09580000      -1.59450000       1.99710000      -1.39380000       0.25680000       2.93380000
H        0.00190000       2.47160000       0.00460000      -0.27590000      -6.77650000      -4.30930000
H       -0.07790000      -2.33580000       0.06930000       0.39500000       0.41330000      -2.84350000
9
Lattice="50.0 0.0 0.0 0.0 50.0 0.0 0.0 0.0 50.0" Properties=species:S:1:pos:R:3:forces:R:3 energy=-956.378892 pbc="T T T"
C       -0.01540000       0.71430000       1.30450000       1.51840000       3.86160000       3.43300000
C       -0.00470000      -0.71150000       1.32380000       1.96350000      -1.16740000       0.04590000
C        0.01090000      -1.25680000       0.04850000      -0.66190000       7.42740000       1.32940000
C        0.00830000       1.26600000       0.03700000      -0.97570000       2.13380000      -1.22840000
S       -0.00070000      -0.00150000      -1.15320000       0.08870000       1.45580000      -2.71340000
H        0.02600000       1.43650000       2.15520000      -0.11260000      -4.25960000       3.56210000
H        0.09890000      -1.63460000       2.00900000      -1.75490000      -0.62060000       3.73370000
H       -0.00060000       2.42300000       0.01380000      -0.46580000      -8.19090000      -5.37520000
H       -0.09130000      -2.31950000       0.09350000       0.40020000      -0.64020000      -2.78710000
9
Lattice="50.0 0.0 0.0 0.0 50.0 0.0 0.0 0.0 50.0" Properties=species:S:1:pos:R:3:forces:R:3 energy=-956.502329 pbc="T T T"
C       -0.01660000       0.71510000       1.30390000       2.20170000       4.06220000       1.28690000
C       -0.00360000      -0.71140000       1.32080000       2.31920000      -6.84790000       1.51490000
C        0.01190000      -1.25750000       0.04960000      -1.64370000       2.73050000       3.53680000
C        0.00850000       1.27300000       0.03660000      -0.78010000      -2.68240000      -0.85080000
S       -0.00070000      -0.00150000      -1.15340000       0.68200000       0.94830000       0.36860000
H        0.02820000       1.43570000       2.16150000      -1.23100000      -1.47680000      -0.00950000
H        0.09890000      -1.67130000       2.02590000      -1.05050000       6.38870000      -1.74100000
H       -0.00360000       2.35990000       0.01420000      -0.34150000      -3.40500000      -0.37320000
H       -0.10430000      -2.30480000       0.11130000      -0.15610000       0.28230000      -3.73250000
9
Lattice="50.0 0.0 0.0 0.0 50.0 0.0 0.0 0.0 50.0" Properties=species:S:1:pos:R:3:forces:R:3 energy=-954.822709 pbc="T T T"
C       -0.01740000       0.71650000       1.30360000       2.59890000       3.45890000      -1.34030000
C       -0.00220000      -0.71260000       1.31790000       1.07190000      -8.06830000       3.05620000
C        0.01260000      -1.25760000       0.05150000      -0.80260000       1.01370000       3.25580000
C        0.00870000       1.27960000       0.03640000      -0.15490000     -14.74040000       1.77020000
S       -0.00060000      -0.00140000      -1.15370000       0.82770000       1.14340000       0.45060000
H        0.02760000       1.43140000       2.16720000      -1.28450000      -0.37080000       0.61450000
H        0.09730000      -1.69480000       2.04000000      -0.28710000       7.27820000      -2.63220000
H       -0.00750000       2.29130000       0.01220000      -1.02420000       9.48990000      -1.28720000
H       -0.11810000      -2.29060000       0.12100000      -0.94510000       0.79540000      -3.88760000
9
Lattice="50.0 0.0 0.0 0.0 50.0 0.0 0.0 0.0 50.0" Properties=species:S:1:pos:R:3:forces:R:3 energy=-954.460195 pbc="T T T"
C       -0.01780000       0.71850000       1.30310000       2.18500000       1.57730000      -2.29150000
C       -0.00070000      -0.71510000       1.31540000       0.73290000      -6.22210000       1.32910000
C        0.01320000      -1.25740000       0.05390000      -0.63970000       0.19430000       0.77510000
C        0.00870000       1.28410000       0.03650000      -0.89190000     -13.91110000       3.44800000
S       -0.00050000      -0.00130000      -1.15390000       1.02770000       2.52310000       3.44040000
H        0.02530000       1.42450000       2.17220000      -0.38000000      -1.60760000      -0.85950000
H        0.09440000      -1.70280000       2.04930000      -0.75820000       6.38790000      -1.72950000
H       -0.01320000       2.23900000       0.00650000      -0.87060000      12.34070000      -2.64700000
H       -0.13320000      -2.27730000       0.12360000      -0.40520000      -1.28250000      -1.46510000
9
Lattice="50.0 0.0 0.0 0.0 50.0 0.0 0.0 0.0 50.0" Properties=species:S:1:pos:R:3:forces:R:3 energy=-954.233258 pbc="T T T"
C       -0.01770000       0.72080000       1.30230000       2.35720000       0.35050000      -3.86230000
C        0.00100000      -0.71890000       1.31320000       0.62630000      -4.94600000       1.84780000
C        0.01370000      -1.25720000       0.05640000      -0.76670000      -1.16580000      -1.76700000
C        0.00850000       1.28580000       0.03730000      -0.66870000     -17.87670000       3.15200000
S       -0.00020000      -0.00090000      -1.15390000       1.28310000       3.83370000       6.24770000
H        0.02200000       1.41370000       2.17520000      -0.43670000      -1.43200000      -0.56220000
H        0.08960000      -1.69540000       2.05440000      -0.52030000       5.80650000      -0.50900000
H       -0.02090000       2.21630000      -0.00550000      -1.28390000      16.39790000      -3.37310000
H       -0.14920000      -2.26700000       0.12270000      -0.59030000      -0.96810000      -1.17380000
9
Lattice="50.0 0.0 0.0 0.0 50.0 0.0 0.0 0.0 50.0" Properties=species:S:1:pos:R:3:forces:R:3 energy=-955.035575 pbc="T T T"
C       -0.01730000       0.72330000       1.30100000       1.24930000      -0.50480000       0.67910000
C        0.00290000      -0.72360000       1.31130000       0.59050000      -0.53500000       1.93760000
C        0.01410000      -1.25670000       0.05880000      -0.13780000       2.99780000      -3.07980000
C        0.00830000       1.28440000       0.03880000      -0.17790000     -12.51130000       2.84730000
S        0.00000000      -0.00040000      -1.15350000       0.15700000       1.29320000       4.79130000
H        0.01790000       1.39930000       2.17660000      -0.29800000      -1.17350000      -0.68870000
H        0.08350000      -1.67540000       2.05840000      -0.49640000       3.59050000       0.19950000
H       -0.03100000       2.22490000      -0.02520000      -0.58800000       8.25050000      -4.26420000
H       -0.16610000      -2.26050000       0.11690000      -0.29870000      -1.40730000      -2.42220000
9
Lattice="50.0 0.0 0.0 0.0 50.0 0.0 0.0 0.0 50.0" Properties=species:S:1:pos:R:3:forces:R:3 energy=-955.532328 pbc="T T T"
C       -0.01660000       0.72570000       1.29990000       1.28330000      -3.63350000       1.30690000
C        0.00490000      -0.72840000       1.30980000       0.38410000       2.39890000       2.56610000
C        0.01440000      -1.25570000       0.06050000      -0.23990000       3.21810000      -5.72680000
C        0.00810000       1.28050000       0.04090000      -0.84360000     -11.17370000       1.36380000
S        0.00030000       0.00020000      -1.15280000       0.36840000       2.54950000       7.36990000
H        0.01310000       1.38210000       2.17640000      -0.32920000      -0.01170000      -0.38930000
H        0.07610000      -1.64680000       2.06290000      -0.21640000       2.13350000       0.50540000
H       -0.04240000       2.25330000      -0.05510000      -0.14010000       4.94400000      -5.13540000
H       -0.18370000      -2.25730000       0.10520000      -0.26660000      -0.42510000      -1.86070000
9
Lattice="50.0 0.0 0.0 0.0 50.0 0.0 0.0 0.0 50.0" Properties=species:S:1:pos:R:3:forces:R:3 energy=-955.843373 pbc="T T T"
C       -0.01560000       0.72760000       1.29900000       1.85190000      -2.13290000       0.61080000
C        0.00690000      -0.73300000       1.30880000      -0.08580000      -1.36590000       2.70450000
C        0.01470000      -1.25390000       0.06160000      -0.06800000       3.80040000      -1.23680000
C        0.00760000       1.27470000       0.04330000      -1.93040000      -5.70020000      -0.35710000
S        0.00060000       0.00090000      -1.15170000      -0.15950000       2.88630000       3.72310000
H        0.00690000       1.36430000       2.17490000      -0.89460000       0.73220000      -0.07690000
H        0.06830000      -1.61200000       2.06740000       0.03930000       1.71200000      -0.72330000
H       -0.05330000       2.29360000      -0.09510000       1.20870000       1.95590000      -3.12540000
H       -0.20180000      -2.25780000       0.08900000       0.03830000      -1.88780000      -1.51900000
9
Lattice="50.0 0.0 0.0 0.0 50.0 0.0 0.0 0.0 50.0" Properties=species:S:1:pos:R:3:forces:R:3 energy=-956.095253 pbc="T T T"
C       -0.01430000       0.72910000       1.29820000       2.02460000      -3.26480000       1.53390000
C        0.00890000      -0.73800000       1.30830000      -0.49880000      -2.06310000       3.78970000
C        0.01500000      -1.25140000       0.06240000      -0.29850000       2.30570000      -1.30840000
C        0.00670000       1.26760000       0.04560000      -2.52220000      -2.47640000      -4.51790000
S        0.00090000       0.00190000      -1.15030000      -0.19400000       3.67570000       4.37340000
H       -0.00140000       1.34840000       2.17320000      -0.95250000       2.09230000       0.98080000
H        0.06060000      -1.57300000       2.07020000       0.25920000       0.89740000      -1.25980000
H       -0.06130000       2.33860000      -0.14250000       1.71260000      -0.54640000      -2.25280000
H       -0.21980000      -2.26290000       0.06920000       0.46960000      -0.62050000      -1.33890000
9
Lattice="50.0 0.0 0.0 0.0 50.0 0.0 0.0 0.0 50.0" Properties=species:S:1:pos:R:3:forces:R:3 energy=-956.140996 pbc="T T T"
C       -0.01260000       0.73010000       1.29770000       1.76830000      -2.16490000       3.18560000
C        0.01090000      -0.74310000       1.30830000      -0.18470000       0.79520000       1.47990000
C        0.01520000      -1.24840000       0.06320000       0.02420000       0.69300000       0.92340000
C        0.00550000       1.26020000       0.04740000      -1.46120000       2.68390000      -4.84690000
S        0.00110000       0.00310000      -1.14870000      -0.45250000      -0.76870000       1.19190000
H       -0.01090000       1.33590000       2.17280000       0.14480000       1.92850000       1.94680000
H        0.05220000      -1.53140000       2.07050000      -1.17690000       1.12800000      -2.13940000
H       -0.06690000       2.38300000      -0.19420000       0.45550000      -2.84170000       0.53630000
H       -0.23650000      -2.27130000       0.04530000       0.88250000      -1.45320000      -2.27750000
9
Lattice="50.0 0.0 0.0 0.0 50.0 0.0 0.0 0.0 50.0" Properties=species:S:1:pos:R:3:forces:R:3 energy=-955.977568 pbc="T T T"
C       -0.01050000       0.73070000       1.29780000       1.87190000      -2.78150000       6.83500000
C        0.01280000      -0.74810000       1.30860000       0.00930000       1.02880000       0.24610000
C        0.01540000      -1.24520000       0.06410000      -0.26160000      -1.84440000       0.94020000
C        0.00400000       1.25330000       0.04830000      -1.75540000       8.35810000     -10.78260000
S        0.00130000       0.00410000      -1.14700000      -0.49930000      -2.34770000       0.90310000
H       -0.02000000       1.32810000       2.17690000       0.22840000       2.88970000       4.02700000
H        0.04100000      -1.48710000       2.06570000      -1.58530000       1.49080000      -3.04200000
H       -0.07140000       2.42050000      -0.24460000       0.63170000      -6.59340000       2.90980000
H       -0.25110000      -2.28320000       0.01580000       1.36030000      -0.20050000      -2.03670000
9
Lattice="50.0 0.0 0.0 0.0 50.0 0.0 0.0 0.0 50.0" Properties=species:S:1:pos:R:3:forces:R:3 energy=-956.071607 pbc="T T T"
C       -0.00820000       0.73080000       1.29880000       0.34530000      -4.08010000       3.36060000
C        0.01470000      -0.75260000       1.30900000       0.36400000       5.80660000      -1.92270000
C        0.01560000      -1.24220000       0.06510000      -1.33780000      -2.50850000      -1.40930000
C        0.00230000       1.24770000       0.04790000      -0.48580000       7.69690000      -3.11460000
S        0.00150000       0.00510000      -1.14530000      -0.39940000      -2.33640000      -0.29940000
H       -0.02830000       1.32560000       2.18730000       0.41310000       2.38320000       0.78920000
H        0.02710000      -1.44120000       2.05770000      -0.85530000      -1.31370000       2.16500000
H       -0.07480000       2.44450000      -0.29050000       0.37830000      -7.22900000       2.33350000
H       -0.26250000      -2.29540000      -0.01870000       1.57760000       1.58100000      -1.90230000
9
Lattice="50.0 0.0 0.0 0.0 50.0 0.0 0.0 0.0 50.0" Properties=species:S:1:pos:R:3:forces:R:3 energy=-955.81083 pbc="T T T"
C       -0.00580000       0.73000000       1.30050000       0.17130000      -5.03880000       5.07520000
C        0.01670000      -0.75600000       1.30890000       0.71700000       6.76640000      -3.71300000
C        0.01540000      -1.23980000       0.06590000      -1.80190000      -4.35920000      -3.82050000
C        0.00040000       1.24360000       0.04680000      -0.53120000      10.47580000      -3.22670000
S        0.00170000       0.00590000      -1.14360000      -0.31090000      -3.74390000      -1.24910000
H       -0.03570000       1.32890000       2.19960000       0.39150000       2.81920000      -0.09470000
H        0.01120000      -1.39850000       2.05490000      -1.04650000      -1.77060000       4.15980000
H       -0.07720000       2.45120000      -0.33090000       0.43870000      -8.67450000       3.64730000
H       -0.27010000      -2.30380000      -0.05780000       1.97200000       3.52560000      -0.77820000
9
Lattice="50.0 0.0 0.0 0.0 50.0 0.0 0.0 0.0 50.0" Properties=species:S:1:pos:R:3:forces:R:3 energy=-955.761642 pbc="T T T"
C       -0.00340000       0.72830000       1.30280000      -0.40670000      -2.88400000       1.43320000
C        0.01880000      -0.75800000       1.30820000       1.08690000       5.87300000      -3.62780000
C        0.01480000      -1.23790000       0.06610000      -2.81820000      -2.24220000      -4.28240000
C       -0.00150000       1.24110000       0.04530000       0.39950000       6.71460000      -1.06600000
S        0.00180000       0.00650000      -1.14190000      -0.41600000      -2.10330000       0.03100000
H       -0.04250000       1.33580000       2.21090000       0.08790000      -0.33840000      -1.81780000
H       -0.00660000      -1.36090000       2.06210000      -0.78200000      -2.72980000       5.47680000
H       -0.07860000       2.44090000      -0.36430000       0.49950000      -4.55870000       2.64110000
H       -0.27330000      -2.30630000      -0.09870000       2.34920000       2.26890000       1.21180000
9
Lattice="50.0 0.0 0.0 0.0 50.0 0.0 0.0 0.0 50.0" Properties=species:S:1:pos:R:3:forces:R:3 energy=-955.732431 pbc="T T T"
C       -0.00110000       0.72610000       1.30550000      -0.58390000      -1.90580000      -0.09670000
C        0.02120000      -0.75880000       1.30670000       0.97030000       3.89180000      -2.48160000
C        0.01370000      -1.23660000       0.06540000      -3.57780000      -1.93890000      -6.35100000
C       -0.00320000       1.24000000       0.04350000       0.67120000       6.49420000      -0.25670000
S        0.00190000       0.00690000      -1.14020000      -0.34430000      -2.94370000       0.04550000
H       -0.04900000       1.34200000       2.21790000       0.16870000      -0.75010000      -2.21280000
H       -0.02640000      -1.32980000       2.08250000      -0.80400000      -2.21080000       5.16680000
H       -0.07880000       2.41970000      -0.39140000       0.50740000      -2.99220000       3.26770000
H       -0.27070000      -2.30340000      -0.13670000       2.99240000       2.35530000       2.91880000
9
Lattice="50.0 0.0 0.0 0.0 50.0 0.0 0.0 0.0 50.0" Properties=species:S:1:pos:R:3:forces:R:3 energy=-956.047727 pbc="T T T"
C        0.00110000       0.72350000       1.30820000      -0.49440000      -1.12030000      -0.75270000
C        0.02370000      -0.75850000       1.30470000      -0.53410000       5.62240000      -0.10130000
C        0.01200000      -1.23560000       0.06370000      -2.89540000      -2.08790000      -4.39970000
C       -0.00500000       1.24010000       0.04150000       0.39130000       3.73520000      -1.18830000
S        0.00200000       0.00710000      -1.13860000      -0.42380000      -1.82490000      -0.37110000
H       -0.05510000       1.34720000       2.22060000       0.28650000       0.14800000      -1.66060000
H       -0.04730000      -1.30640000       2.11530000       0.16000000      -3.59940000       3.18520000
H       -0.07750000       2.39000000      -0.41140000       0.79670000      -2.78480000       3.53230000
H       -0.26200000      -2.29510000      -0.17000000       2.71310000       1.91180000       1.75630000
9
Lattice="50.0 0.0 0.0 0.0 50.0 0.0 0.0 0.0 50.0" Properties=species:S:1:pos:R:3:forces:R:3 energy=-956.120649 pbc="T T T"
C        0.00320000       0.72060000       1.31090000      -0.32390000       0.11400000      -3.27990000
C        0.02600000      -0.75700000       1.30260000      -1.85340000       3.90600000       4.39420000
C        0.00970000      -1.23510000       0.06110000      -3.15480000      -1.68830000      -4.67790000
C       -0.00660000       1.24100000       0.03920000       0.81110000       2.43400000      -0.99520000
S        0.00200000       0.00730000      -1.13690000      -0.61170000      -2.15530000      -0.70680000
H       -0.06050000       1.35280000       2.21940000       0.37030000       0.44680000      -1.76140000
H       -0.06780000      -1.29150000       2.15570000       0.81640000      -2.95260000       0.41170000
H       -0.07420000       2.35350000      -0.42290000       0.76010000      -1.34390000       4.70130000
H       -0.24670000      -2.28230000      -0.19910000       3.18600000       1.23910000       1.91410000
9
Lattice="50.0 0.0 0.0 0.0 50.0 0.0 0.0 0.0 50.0" Properties=species:S:1:pos:R:3:forces:R:3 energy=-956.947175 pbc="T T T"
C        0.00520000       0.71770000       1.31310000      -0.00680000       0.98890000      -1.50630000
C        0.02810000      -0.75470000       1.30110000      -1.99920000       3.06280000       3.98560000
C        0.00690000      -1.23500000       0.05790000      -0.87950000      -2.61790000      -1.41660000
C       -0.00820000       1.24240000       0.03680000       0.63410000       1.79330000      -1.11710000
S        0.00210000       0.00730000      -1.13530000      -0.31470000      -0.48840000      -1.13640000
H       -0.06500000       1.35810000       2.21390000       0.36380000      -0.82320000      -1.46810000
H       -0.08710000      -1.28310000       2.19870000       0.79760000      -1.46770000      -0.87400000
H       -0.06960000       2.31110000      -0.42550000       0.06580000      -2.40280000       3.03660000
H       -0.22570000      -2.26550000      -0.22490000       1.33900000       1.95510000       0.49620000
9
Lattice="50.0 0.0 0.0 0.0 50.0 0.0 0.0 0.0 50.0" Properties=species:S:1:pos:R:3:forces:R:3 energy=-956.987716 pbc="T T T"
C        0.00730000       0.71500000       1.31510000       0.01200000       3.26100000      -3.52350000
C        0.02980000      -0.75180000       1.30030000      -3.07760000       0.98240000       7.01350000
C        0.00390000      -1.23540000       0.05430000      -0.10220000      -2.85880000      -0.71300000
C       -0.00960000       1.24430000       0.03410000       1.10150000      -1.23390000      -1.23810000
S        0.00200000       0.00720000      -1.13380000      -0.34010000      -0.11130000      -1.82020000
H       -0.06860000       1.36150000       2.20500000       0.40580000      -0.91600000      -0.72300000
H       -0.10450000      -1.27820000       2.23960000       1.35250000      -0.78620000      -2.75420000
H       -0.06480000       2.26290000      -0.42080000      -0.30150000      -0.26660000       3.48530000
H       -0.20150000      -2.24410000      -0.24960000       0.94960000       1.92940000       0.27320000
9
Lattice="50.0 0.0 0.0 0.0 50.0 0.0 0.0 0.0 50.0" Properties=species:S:1:pos:R:3:forces:R:3 energy=-956.901845 pbc="T T T"
C        0.00930000       0.71290000       1.31640000      -0.04150000       5.80250000      -5.41830000
C        0.03090000      -0.74860000       1.30100000      -3.91280000      -1.04470000       9.21790000
C        0.00090000      -1.23640000       0.05060000       0.73840000      -3.14490000      -0.55200000
C       -0.01080000       1.24590000       0.03110000       1.54200000      -4.36720000      -1.44920000
S        0.00200000       0.00720000      -1.13250000      -0.28120000       0.00200000      -2.74090000
H       -0.07130000       1.36260000       2.19420000       0.44330000      -1.10390000       0.29880000
H       -0.11860000      -1.27520000       2.27390000       1.74600000      -0.23580000      -3.89030000
H       -0.06080000       2.21400000      -0.40780000      -0.70310000       2.01220000       4.11300000
H       -0.17500000      -2.21810000      -0.27360000       0.46900000       2.07970000       0.42100000
9