9
Lattice="50.0 0.0 0.0 0.0 50.0 0.0 0.0 0.0 50.0" Properties=species:S:1:pos:R:3:forces:R:3 energy=-959.188347 pbc="T T T"
C       -0.00170000       0.71660000       1.31990000      -2.27660000      -2.84230000      -2.48340000
C       -0.00130000      -0.71660000       1.32340000      -1.01720000      -3.53110000      -1.91380000
C        0.00050000      -1.23920000       0.05110000      -1.86420000      -4.84940000      -9.33740000
C        0.00120000       1.23880000       0.04820000      -2.86200000      25.84560000     -16.77530000
S        0.64560000       0.00030000      -1.15240000      10.00550000      -0.05390000     -23.21550000
H        0.00750000       1.28930000       2.17860000       0.42540000      18.08620000       9.24120000
H        0.01690000      -1.31900000       2.17450000      -0.16690000      -7.51310000       1.58320000
H       -0.00110000       2.35870000      -0.22990000      -0.81270000     -22.46700000      25.86080000
H       -0.00620000      -2.33200000      -0.22270000      -1.43120000      -2.67510000      17.04030000
9
Lattice="50.0 0.0 0.0 0.0 50.0 0.0 0.0 0.0 50.0" Properties=species:S:1:pos:R:3:forces:R:3 energy=-953.042629 pbc="T T T"
C       -0.00350000       0.71810000       1.32040000       0.62040000      -4.25340000     -25.80370000
C       -0.00260000      -0.71810000       1.32740000       5.24860000       5.75320000       1.23680000
C        0.00210000      -1.23820000       0.05090000       3.68460000     -23.15850000      -4.38980000
C        0.00340000       1.23750000       0.04520000       2.59990000      10.40520000      -6.28620000
S        0.64470000       0.00050000      -1.15180000     -16.49150000      -7.37650000      -2.11790000
H        0.01480000       1.25950000       2.14670000      -4.48690000      19.99970000      33.75830000
H        0.03300000      -1.31780000       2.13760000      -6.90040000     -10.16780000       5.88120000
H       -0.00170000       2.43130000      -0.21580000       6.99590000      -9.97580000       2.27430000
H       -0.01120000      -2.37990000      -0.20160000       8.72930000      18.77400000      -4.55300000
9
Lattice="50.0 0.0 0.0 0.0 50.0 0.0 0.0 0.0 50.0" Properties=species:S:1:pos:R:3:forces:R:3 energy=-954.655675 pbc="T T T"
C       -0.00530000       0.71890000       1.31990000      -0.59350000      -3.88010000       1.17110000
C       -0.00390000      -0.71930000       1.33050000       5.74790000       3.09410000      -5.65060000
C        0.00450000      -1.23770000       0.05070000       6.05220000      -6.18990000       0.86030000
C        0.00650000       1.23720000       0.04220000       6.09280000       8.59850000      -5.93470000
S        0.64320000       0.00080000      -1.15110000     -10.16780000      -0.19400000       4.76750000
H        0.02150000       1.23670000       2.12470000      -2.29410000       5.44010000       6.62180000
H        0.04830000      -1.32110000       2.10830000      -5.11460000       3.14040000       2.86330000
H       -0.00150000       2.49280000      -0.20000000       0.30590000      -7.45620000       1.44870000
H       -0.01510000      -2.41990000      -0.17950000      -0.02880000      -2.55290000      -6.14730000
9
Lattice="50.0 0.0 0.0 0.0 50.0 0.0 0.0 0.0 50.0" Properties=species:S:1:pos:R:3:forces:R:3 energy=-954.322747 pbc="T T T"
C       -0.00730000       0.71900000       1.31970000       0.54840000      -5.18800000       4.04290000
C       -0.00400000      -0.71980000       1.33250000       6.88510000       4.03760000      -5.14490000
C        0.00820000      -1.23840000       0.05070000       6.90180000      -7.38720000      -3.50620000
C        0.01090000       1.23850000       0.03800000       6.16900000      16.58460000      -4.51990000
S        0.64090000       0.00100000      -1.15010000     -11.17450000       0.18230000       6.47070000
H        0.02260000       1.22680000       2.11850000      -3.06660000       4.76050000       3.11830000
H        0.05140000      -1.31670000       2.08590000      -5.89280000       4.29540000       6.48060000
H       -0.00060000       2.53640000      -0.18080000       0.24990000     -12.69810000       0.58770000
H       -0.01900000      -2.46590000      -0.17210000      -0.62030000      -4.58710000      -7.52920000
9
Lattice="50.0 0.0 0.0 0.0 50.0 0.0 0.0 0.0 50.0" Properties=species:S:1:pos:R:3:forces:R:3 energy=-953.922707 pbc="T T T"
C       -0.00920000       0.71810000       1.31790000       1.00270000      -4.11180000      -5.97080000
C       -0.00420000      -0.71950000       1.33310000       1.20270000       3.81740000      -6.70370000
C        0.01280000      -1.24010000       0.05070000       4.63700000      -5.09900000      -0.80250000
C        0.01610000       1.24100000       0.03390000       4.13860000       7.38290000       6.19020000
S        0.63780000       0.00120000      -1.14900000      -8.77810000      -1.25010000       0.71990000
H        0.02290000       1.22850000       2.12840000      -2.85990000       2.77340000       2.06590000
H        0.05400000      -1.32110000       2.07740000      -2.70980000      -3.53600000       7.75570000
H        0.00130000       2.56540000      -0.16040000       1.60780000      -5.46040000      -1.97630000
H       -0.02180000      -2.49940000      -0.16410000       1.75910000       5.48360000      -1.27840000
9
Lattice="50.0 0.0 0.0 0.0 50.0 0.0 0.0 0.0 50.0" Properties=species:S:1:pos:R:3:forces:R:3 energy=-954.007963 pbc="T T T"
C       -0.01090000       0.71630000       1.31490000       0.95600000      -2.63260000      -5.18860000
C       -0.00400000      -0.71840000       1.33230000       0.99400000       2.61320000      -6.20800000
C        0.01840000      -1.24280000       0.05060000       4.29640000      -6.23740000       0.25610000
C        0.02220000       1.24490000       0.03100000       3.15550000       8.32140000      11.19750000
S        0.63410000       0.00130000      -1.14790000      -8.04850000      -0.79980000      -0.05390000
H        0.01630000       1.23680000       2.14330000      -2.62850000       3.80840000      -0.11190000
H        0.05020000      -1.33390000       2.08750000      -2.50940000      -4.73920000       7.36400000
H        0.00690000       2.58140000      -0.14470000       1.99090000      -5.39640000      -4.61850000
H       -0.02030000      -2.51980000      -0.15920000       1.79370000       5.06230000      -2.63650000
9
Lattice="50.0 0.0 0.0 0.0 50.0 0.0 0.0 0.0 50.0" Properties=species:S:1:pos:R:3:forces:R:3 energy=-954.603467 pbc="T T T"
C       -0.01230000       0.71390000       1.31080000       0.72870000      -0.90800000      -5.44530000
C       -0.00370000      -0.71680000       1.33030000       0.55720000       1.23780000      -5.94090000
C        0.02480000      -1.24670000       0.05050000       4.07340000      -7.13650000       3.16710000
C        0.02890000       1.25050000       0.03030000       2.35760000       8.41010000      14.24480000
S        0.62980000       0.00140000      -1.14670000      -7.20440000      -0.79640000      -0.64940000
H        0.00340000       1.25420000       2.15790000      -2.24670000       6.19190000      -0.82170000
H        0.04030000      -1.35810000       2.11530000      -2.10610000      -6.79080000       5.86130000
H        0.01740000       2.58450000      -0.14000000       2.12500000      -4.48460000      -6.13640000
H       -0.01460000      -2.52810000      -0.16060000       1.71540000       4.27660000      -4.27940000
9
Lattice="50.0 0.0 0.0 0.0 50.0 0.0 0.0 0.0 50.0" Properties=species:S:1:pos:R:3:forces:R:3 energy=-955.584436 pbc="T T T"
C       -0.01370000       0.71120000       1.30600000       0.76680000      -0.62100000      -6.44720000
C       -0.00330000      -0.71490000       1.32740000      -0.43680000       3.53920000      -4.50930000
C        0.03200000      -1.25160000       0.05050000       5.02800000      -6.02150000       4.05220000
C        0.03630000       1.25710000       0.02990000       4.59150000       3.41200000       7.89560000
S        0.62470000       0.00140000      -1.14560000      -7.99760000      -0.50700000       0.26010000
H       -0.00940000       1.27730000       2.17960000      -2.19930000       5.54450000       2.16320000
H        0.02940000      -1.38600000       2.15040000      -1.93160000      -4.61640000       2.48260000
H        0.02900000       2.57200000      -0.13530000       0.89590000      -4.55340000      -2.21150000
H       -0.00780000      -2.52210000      -0.16140000       1.28320000       3.82360000      -3.68570000
9
Lattice="50.0 0.0 0.0 0.0 50.0 0.0 0.0 0.0 50.0" Properties=species:S:1:pos:R:3:forces:R:3 energy=-956.765464 pbc="T T T"
C       -0.01490000       0.70840000       1.29980000       0.77380000      -0.86850000     -10.64830000
C       -0.00300000      -0.71230000       1.32360000      -1.07130000       5.77170000      -8.36430000
C        0.04020000      -1.25770000       0.05120000       4.80610000      -6.10210000       9.46650000
C        0.04460000       1.26440000       0.03100000       3.59430000       1.17210000      15.18420000
S        0.61910000       0.00140000      -1.14440000      -7.42420000      -0.54640000       0.66970000
H       -0.02750000       1.31370000       2.20640000      -1.75410000       7.87610000       1.98030000
H        0.01400000      -1.42490000       2.19140000      -1.27830000      -8.22500000       2.76160000
H        0.04270000       2.54860000      -0.13590000       1.12140000      -1.16860000      -5.15500000
H        0.00210000      -2.50700000      -0.17100000       1.23220000       2.09060000      -5.89460000
9
Lattice="50.0 0.0 0.0 0.0 50.0 0.0 0.0 0.0 50.0" Properties=species:S:1:pos:R:3:forces:R:3 energy=-955.940765 pbc="T T T"
C       -0.01600000       0.70590000       1.29380000      -0.48220000       4.55130000       1.30850000
C       -0.00250000      -0.71030000       1.31970000       0.64830000      -5.36080000       0.86860000
C        0.04920000      -1.26460000       0.05200000       3.39170000      -0.67740000       3.87960000
C        0.05360000       1.27250000       0.03250000       3.18880000      -2.06080000       6.04260000
S        0.61280000       0.00140000      -1.14320000      -5.57090000      -1.59900000      -1.05890000
H       -0.04590000       1.34920000       2.23180000      -0.80330000      -3.67170000      -3.96650000
H       -0.00160000      -1.45990000       2.23000000      -2.17220000       5.81910000      -4.28350000
H        0.05710000       2.51130000      -0.13680000       0.47440000      -1.42100000      -1.23950000
H        0.01320000      -2.47910000      -0.17970000       1.32540000       4.42040000      -1.55090000
9
Lattice="50.0 0.0 0.0 0.0 50.0 0.0 0.0 0.0 50.0" Properties=species:S:1:pos:R:3:forces:R:3 energy=-955.63165 pbc="T T T"
C       -0.01710000       0.70440000       1.28810000      -0.78000000       6.06810000       2.97920000
C       -0.00200000      -0.70930000       1.31590000       0.15270000      -8.18050000       1.21000000
C        0.05880000      -1.27160000       0.05360000       2.66930000       3.40300000       7.92900000
C        0.06330000       1.28030000       0.03510000       2.28650000      -5.18930000       9.67940000
S        0.60600000       0.00120000      -1.14210000      -4.55220000      -1.79090000      -1.99130000
H       -0.06620000       1.37590000       2.24770000      -0.27870000      -8.26710000      -6.54620000
H       -0.02250000      -1.48090000       2.25840000      -1.53380000      10.84360000      -8.35740000
H        0.07270000       2.47070000      -0.14060000       0.68190000       1.10230000      -2.93590000
H        0.02750000      -2.44070000      -0.19200000       1.35430000       2.01080000      -1.96680000
9
Lattice="50.0 0.0 0.0 0.0 50.0 0.0 0.0 0.0 50.0" Properties=species:S:1:pos:R:3:forces:R:3 energy=-955.7529 pbc="T T T"
C       -0.01850000       0.70400000       1.28290000      -1.15920000       5.48240000       3.82490000
C       -0.00140000      -0.71000000       1.31240000      -0.47250000      -7.74200000       0.27670000
C        0.06890000      -1.27790000       0.05670000       2.26080000       6.64070000       9.70380000
C        0.07340000       1.28690000       0.03970000       1.67990000      -6.13720000      11.27970000
S        0.59900000       0.00100000      -1.14110000      -3.73630000      -2.12690000      -2.83220000
H       -0.08710000       1.38290000       2.24790000       0.17000000      -9.23330000      -7.32300000
H       -0.04700000      -1.47600000       2.26680000      -0.84360000      11.25030000      -9.71550000
H        0.08980000       2.43270000      -0.15150000       0.79130000       1.15900000      -3.61630000
H        0.04500000      -2.39740000      -0.20900000       1.30940000       0.70700000      -1.59810000
9
Lattice="50.0 0.0 0.0 0.0 50.0 0.0 0.0 0.0 50.0" Properties=species:S:1:pos:R:3:forces:R:3 energy=-957.484357 pbc="T T T"
C       -0.01970000       0.70450000       1.27860000      -0.89620000       3.08220000       5.68050000
C       -0.00070000      -0.71180000       1.30940000       0.20450000      -2.64040000       0.21830000
C        0.07970000      -1.28450000       0.05980000       2.88700000       2.05280000       0.57420000
C        0.08410000       1.29370000       0.04420000       3.49210000      -0.56760000      -0.84430000
S        0.59130000       0.00070000      -1.14010000      -4.71410000      -0.14180000       1.97620000
H       -0.10740000       1.38450000       2.24090000      -1.14800000      -1.74570000      -4.24680000
H       -0.07090000      -1.46320000       2.26790000      -0.17230000       1.83080000      -3.92020000
H        0.10740000       2.38690000      -0.16260000       0.41350000      -1.75440000       0.15610000
H        0.06360000      -2.34740000      -0.22520000      -0.06650000      -0.11600000       0.40590000
9
Lattice="50.0 0.0 0.0 0.0 50.0 0.0 0.0 0.0 50.0" Properties=species:S:1:pos:R:3:forces:R:3 energy=-957.667927 pbc="T T T"
C       -0.02100000       0.70560000       1.27530000      -0.90170000       2.10430000       5.91020000
C        0.00000000      -0.71410000       1.30640000       0.63970000      -0.43410000      -0.49360000
C        0.09110000      -1.29070000       0.06290000       2.66900000       4.63240000       0.42170000
C        0.09550000       1.30040000       0.04860000       2.96430000      -2.99120000      -0.95890000
S        0.58330000       0.00040000      -1.13890000      -4.08860000      -0.27660000       2.00520000
H       -0.13040000       1.38200000       2.22370000      -1.01400000      -0.85780000      -4.54140000
H       -0.09530000      -1.44600000       2.25960000      -0.21720000      -0.50370000      -3.07670000
H        0.12590000       2.33690000      -0.17340000       0.34970000       0.32230000       0.15870000
H        0.08210000      -2.29770000      -0.24040000      -0.40130000      -1.99560000       0.57470000
9
Lattice="50.0 0.0 0.0 0.0 50.0 0.0 0.0 0.0 50.0" Properties=species:S:1:pos:R:3:forces:R:3 energy=-957.678743 pbc="T T T"
C       -0.02260000       0.70720000       1.27330000      -0.81520000       2.19600000       6.16750000
C        0.00090000      -0.71650000       1.30330000       1.17190000       0.69620000      -0.38290000
C        0.10290000      -1.29590000       0.06620000       2.54250000       7.51480000      -0.06170000
C        0.10750000       1.30640000       0.05270000       2.13800000      -6.31860000      -0.18580000
S        0.57500000       0.00010000      -1.13760000      -3.69390000      -0.34390000       2.34400000
H       -0.15580000       1.37740000       2.19570000      -0.85390000      -0.07270000      -5.63550000
H       -0.12010000      -1.43000000       2.24400000      -0.36490000      -2.55970000      -2.37850000
H        0.14530000       2.28770000      -0.18390000       0.54480000       2.75360000      -0.21610000
H        0.09960000      -2.25280000      -0.25420000      -0.66940000      -3.86570000       0.34910000
9
Lattice="50.0 0.0 0.0 0.0 50.0 0.0 0.0 0.0 50.0" Properties=species:S:1:pos:R:3:forces:R:3 energy=-957.471119 pbc="T T T"
C       -0.02390000       0.70940000       1.27190000      -0.78370000       4.86800000       3.63160000
C        0.00170000      -0.71970000       1.30080000       0.68710000      -2.39440000       2.98650000
C        0.11520000      -1.29980000       0.06930000       3.00870000       8.54580000      -1.99030000
C        0.11990000       1.31110000       0.05690000       1.92980000      -9.78770000       1.19280000
S        0.56610000      -0.00020000      -1.13620000      -4.29830000       0.91120000       3.99690000
H       -0.17910000       1.36860000       2.16290000      -1.06760000      -1.30450000      -4.17250000
H       -0.14330000      -1.40760000       2.22190000      -0.07620000      -0.66390000      -1.91710000
H        0.16490000       2.24660000      -0.19690000       1.34460000       7.89060000      -2.55950000
H        0.11780000      -2.21620000      -0.27000000      -0.74450000      -8.06510000      -1.16830000
9
Lattice="50.0 0.0 0.0 0.0 50.0 0.0 0.0 0.0 50.0" Properties=species:S:1:pos:R:3:forces:R:3 energy=-957.541804 pbc="T T T"
C       -0.02540000       0.71250000       1.27140000      -0.97500000       5.50620000       4.80730000
C        0.00280000      -0.72330000       1.29890000       1.00020000      -1.86330000       4.40030000
C        0.12810000      -1.30210000       0.07200000       3.27780000       9.06620000      -4.33820000
C        0.13270000       1.31370000       0.06140000       1.65760000     -11.52290000       0.46250000
S        0.55680000      -0.00040000      -1.13450000      -4.32720000       1.24490000       5.72950000
H       -0.20500000       1.35660000       2.12020000      -0.90890000      -0.60870000      -4.86070000
H       -0.16660000      -1.38680000       2.19520000      -0.12380000      -1.91660000      -1.72210000
H        0.18780000       2.22430000      -0.21610000       1.49520000       9.90190000      -3.12720000
H        0.13420000      -2.19880000      -0.28860000      -1.09590000      -9.80770000      -1.35130000
9
Lattice="50.0 0.0 0.0 0.0 50.0 0.0 0.0 0.0 50.0" Properties=species:S:1:pos:R:3:forces:R:3 energy=-958.165925 pbc="T T T"
C       -0.02710000       0.71680000       1.27170000      -1.49170000       4.92100000       6.49670000
C        0.00400000      -0.72730000       1.29790000       1.04710000      -0.68840000       6.27380000
C        0.14160000      -1.30250000       0.07390000       3.38080000       7.00710000      -6.95500000
C        0.14590000       1.31410000       0.06590000       1.98560000     -10.62420000      -1.77970000
S        0.54730000      -0.00050000      -1.13230000      -4.10830000       1.12030000       6.47490000
H       -0.23300000       1.34320000       2.06590000      -0.68730000       1.06580000      -5.38890000
H       -0.19020000      -1.37050000       2.16440000      -0.02730000      -3.52230000      -1.88520000
H        0.21420000       2.22570000      -0.24280000       1.18420000       7.67550000      -2.37100000
H        0.14800000      -2.20500000      -0.31040000      -1.28310000      -6.95480000      -0.86560000
9
Lattice="50.0 0.0 0.0 0.0 50.0 0.0 0.0 0.0 50.0" Properties=species:S:1:pos:R:3:forces:R:3 energy=-957.964456 pbc="T T T"
C       -0.02850000       0.72080000       1.27210000      -0.29150000      -1.79820000      -1.30200000
C        0.00530000      -0.73150000       1.29720000       0.70860000       2.25450000       0.67210000
C        0.15540000      -1.30120000       0.07560000       0.59390000       5.90300000      -1.63540000
C        0.15920000       1.31230000       0.07030000       2.09460000     -10.63750000      -1.59360000
S        0.53730000      -0.00060000      -1.13010000      -2.27020000      -0.56170000       1.91460000
H       -0.25950000       1.33170000       2.01730000      -2.08160000       3.43090000       4.53990000
H       -0.21160000      -1.35210000       2.13300000       0.11030000      -1.57890000      -0.42240000
H        0.24150000       2.24260000      -0.27350000       0.79180000       5.35400000      -1.38920000
H        0.16240000      -2.22480000      -0.33460000       0.34420000      -2.36620000      -0.78410000
9
Lattice="50.0 0.0 0.0 0.0 50.0 0.0 0.0 0.0 50.0" Properties=species:S:1:pos:R:3:forces:R:3 energy=-958.051142 pbc="T T T"
C       -0.02990000       0.72460000       1.27220000      -0.26010000      -2.95250000      -1.68990000
C        0.00680000      -0.73510000       1.29660000       0.80200000       3.58250000      -0.08350000
C        0.16930000      -1.29870000       0.07700000      -0.33120000       3.61310000      -2.29230000
C        0.17290000       1.30840000       0.07430000       2.67190000      -8.93120000      -3.27160000
S        0.52710000      -0.00080000      -1.12770000      -1.31170000      -0.56400000       0.32800000
H       -0.29090000       1.32840000       1.97950000      -2.68590000       5.53090000       6.95750000
H       -0.23280000      -1.33750000       2.10070000       0.12440000      -3.45550000       0.53040000
H        0.27060000       2.27230000      -0.30760000       0.37540000       2.58940000      -0.73460000
H        0.17770000      -2.25020000      -0.36070000       0.61530000       0.58730000       0.25610000
9
Lattice="50.0 0.0 0.0 0.0 50.0 0.0 0.0 0.0 50.0" Properties=species:S:1:pos:R:3:forces:R:3 energy=-957.977339 pbc="T T T"
C       -0.03060000       0.72730000       1.27160000       1.03610000      -4.79200000      -0.76780000
C        0.00840000      -0.73830000       1.29580000       1.04990000       4.67220000      -1.51660000
C        0.18330000      -1.29550000       0.07770000      -1.28380000       0.67130000      -3.27700000
C        0.18670000       1.30360000       0.07770000       2.78150000      -1.79010000      -5.90460000
S        0.51650000      -0.00090000      -1.12520000      -1.23040000       0.35240000       0.69230000
H       -0.32200000       1.33390000       1.95680000      -2.24510000       3.15930000       6.13280000
H       -0.25180000      -1.32550000       2.07410000      -1.22410000      -3.00440000       1.89560000
H        0.29890000       2.30630000      -0.34110000      -0.30550000      -0.81400000       0.56480000
H        0.19330000      -2.27940000      -0.38540000       1.42140000       1.54520000       2.18040000
9
Lattice="50.0 0.0 0.0 0.0 50.0 0.0 0.0 0.0 50.0" Properties=species:S:1:pos:R:3:forces:R:3 energy=-957.783281 pbc="T T T"
C       -0.03120000       0.72900000       1.27100000       0.36330000      -3.34730000       2.10200000
C        0.01030000      -0.74050000       1.29470000       0.84310000       4.27050000      -1.42980000
C        0.19710000      -1.29200000       0.07780000      -1.90260000      -1.81400000      -4.23340000
C        0.20110000       1.29840000       0.07990000       3.01250000       2.17610000      -8.29590000
S        0.50580000      -0.00100000      -1.12270000      -0.19940000       0.57080000      -0.56730000
H       -0.35840000       1.34700000       1.94870000      -1.44250000       1.57090000       4.76820000
H       -0.27380000      -1.32070000       2.05210000      -1.22830000      -3.64280000       1.96690000
H        0.32650000       2.33840000      -0.37330000      -0.81200000      -3.10720000       1.73680000
H        0.21220000      -2.30490000      -0.40480000       1.36590000       3.32310000       3.95250000
9
Lattice="50.0 0.0 0.0 0.0 50.0 0.0 0.0 0.0 50.0" Properties=species:S:1:pos:R:3:forces:R:3 energy=-957.711705 pbc="T T T"
C       -0.03110000       0.72970000       1.26980000       1.55530000      -1.67730000       0.72830000
C        0.01250000      -0.74180000       1.29310000       0.41890000       3.87810000      -3.39970000
C        0.21080000      -1.28850000       0.07690000      -0.98260000      -0.50330000      -5.19560000
C        0.21550000       1.29300000       0.08090000       1.64630000       1.67580000      -7.94170000
S        0.49480000      -0.00110000      -1.12010000       0.66470000       0.46760000       1.36220000
H       -0.39410000       1.36850000       1.95550000      -1.38530000       1.09810000       4.49630000
H       -0.29480000      -1.32190000       2.04090000      -1.30020000      -4.39190000       3.56540000
H        0.35210000       2.36580000      -0.40090000      -0.96420000      -3.06630000       2.07870000
H        0.23140000      -2.32730000      -0.41960000       0.34720000       2.51920000       4.30620000
9
Lattice="50.0 0.0 0.0 0.0 50.0 0.0 0.0 0.0 50.0" Properties=species:S:1:pos:R:3:forces:R:3 energy=-957.682865 pbc="T T T"
C       -0.03070000       0.73010000       1.26870000       0.97980000       0.32770000       3.13870000
C        0.01470000      -0.74230000       1.29080000       0.06770000       1.98570000      -2.54270000
C        0.22440000      -1.28510000       0.07500000      -0.94390000      -1.22570000      -5.97450000
C        0.23020000       1.28790000       0.08030000       1.01150000       3.08660000      -8.84850000
S        0.48380000      -0.00120000      -1.11730000       1.63740000       0.38110000       1.08550000
H       -0.43310000       1.39250000       1.97300000      -0.40040000       0.81330000       2.36740000
H       -0.31880000      -1.33360000       2.03830000      -0.91120000      -4.48670000       2.79910000
H        0.37530000       2.38580000      -0.42340000      -1.31110000      -3.89830000       3.00400000
H        0.25150000      -2.34380000      -0.42420000      -0.12980000       3.01640000       4.97080000
9
Lattice="50.0 0.0 0.0 0.0 50.0 0.0 0.0 0.0 50.0" Properties=species:S:1:pos:R:3:forces:R:3 energy=-957.723535 pbc="T T T"
C       -0.03010000       0.73060000       1.26830000       0.51900000       1.73260000       4.62270000
C        0.01700000      -0.74240000       1.28810000      -0.46960000      -0.19530000      -0.83960000
C        0.23780000      -1.28190000       0.07190000      -0.76710000      -1.40110000      -6.93000000
C        0.24500000       1.28350000       0.07800000       0.06400000       3.38050000      -8.64460000
S        0.47300000      -0.00120000      -1.11450000       2.55780000       0.17610000       1.01060000
H       -0.47310000       1.41850000       1.99610000       0.78050000       1.46510000      -0.24400000
H       -0.34510000      -1.35600000       2.04230000      -0.34380000      -3.86290000       1.89690000
H        0.39550000       2.39660000      -0.43880000      -1.81090000      -4.36070000       4.25140000
H        0.27130000      -2.35300000      -0.41680000      -0.52980000       3.06570000       4.87660000
9
Lattice="50.0 0.0 0.0 0.0 50.0 0.0 0.0 0.0 50.0" Properties=species:S:1:pos:R:3:forces:R:3 energy=-957.596729 pbc="T T T"
C       -0.02920000       0.73070000       1.26830000      -0.00550000      -0.88050000       2.41910000
C        0.01940000      -0.74170000       1.28520000      -0.79580000       1.90620000      -0.56280000
C        0.25090000      -1.27900000       0.06780000      -1.24210000      -0.99470000      -4.95310000
C        0.25980000       1.27940000       0.07420000      -0.64010000       1.48980000      -4.83340000
S        0.46190000      -0.00130000      -1.11170000       2.63400000       0.02180000       1.32300000
H       -0.50720000       1.44330000       2.02280000       1.74940000      -0.15910000      -2.07680000
H       -0.36780000      -1.38120000       2.05340000       0.45460000      -0.20840000       1.24950000
H        0.41350000       2.39800000      -0.44720000      -1.84040000      -3.66570000       4.44640000
H        0.29090000      -2.35530000      -0.40380000      -0.31420000       2.49050000       2.98800000
9
Lattice="50.0 0.0 0.0 0.0 50.0 0.0 0.0 0.0 50.0" Properties=species:S:1:pos:R:3:forces:R:3 energy=-957.478382 pbc="T T T"
C       -0.02820000       0.73070000       1.26880000      -0.16910000      -0.03960000       1.84220000
C        0.02170000      -0.74070000       1.28220000      -1.08080000       0.78390000       0.21170000
C        0.26380000      -1.27630000       0.06270000      -1.48260000      -0.73040000      -4.61010000
C        0.27450000       1.27560000       0.06950000      -1.80630000       0.45050000      -2.73190000
S        0.45100000      -0.00130000      -1.10880000       3.44460000       0.01910000       0.90950000
H       -0.53700000       1.46760000       2.04450000       2.86160000      -0.35360000      -4.21100000
H       -0.38950000      -1.40690000       2.06750000       1.03030000       1.17470000       0.56880000
H        0.42710000       2.39060000      -0.44490000      -2.25710000      -3.40690000       5.39610000
H        0.30980000      -2.35160000      -0.38350000      -0.54060000       2.10240000       2.62480000
9
Lattice="50.0 0.0 0.0 0.0 50.0 0.0 0.0 0.0 50.0" Properties=species:S:1:pos:R:3:forces:R:3 energy=-957.384356 pbc="T T T"
C       -0.02730000       0.73060000       1.26970000      -0.19000000       1.38320000       1.04970000
C        0.02380000      -0.73950000       1.27930000      -1.23910000      -0.73930000       0.81170000
C        0.27640000      -1.27380000       0.05670000      -1.88800000      -0.04140000      -3.41940000
C        0.28880000       1.27190000       0.06420000      -3.01880000      -0.34400000      -0.52150000
S        0.44040000      -0.00130000      -1.10580000       4.27580000      -0.23480000      -0.21670000
H       -0.56000000       1.49110000       2.05610000       3.46030000      -1.24490000      -5.05010000
H       -0.40870000      -1.42980000       2.08290000       1.52150000       2.46410000      -0.03360000
H        0.43520000       2.37510000      -0.42970000      -2.21630000      -2.80950000       5.33700000
H        0.32730000      -2.34290000      -0.35700000      -0.70550000       1.56660000       2.04280000
9