9
Lattice="50.0 0.0 0.0 0.0 50.0 0.0 0.0 0.0 50.0" Properties=species:S:1:pos:R:3:forces:R:3 energy=-957.834544 pbc="T T T"
C       -0.00020000       0.71660000       1.32000000      -2.30270000       6.19680000       5.51280000
C       -0.00020000      -0.71660000       1.32000000      -2.30270000      -6.19680000       5.51280000
C       -0.00020000      -1.23960000       0.05040000      -1.50300000      -3.45630000      -8.57990000
C       -0.00020000       1.23960000       0.05040000      -1.50300000       3.45630000      -8.57990000
S        0.64590000      -0.00000000      -1.15350000       3.35530000       0.00000000     -13.74250000
H        0.00090000       1.31700000       2.19900000       0.43550000       1.57040000      -3.03910000
H        0.00090000      -1.31700000       2.19900000       0.43550000      -1.57040000      -3.03910000
H       -0.00190000       2.31060000      -0.22030000       1.69250000       0.88770000      12.97740000
H       -0.00190000      -2.31060000      -0.22030000       1.69250000      -0.88770000      12.97740000
9
Lattice="50.0 0.0 0.0 0.0 50.0 0.0 0.0 0.0 50.0" Properties=species:S:1:pos:R:3:forces:R:3 energy=-955.721806 pbc="T T T"
C       -0.00100000       0.71870000       1.32120000      -3.16480000     -11.22040000      -9.46800000
C       -0.00100000      -0.71870000       1.32120000      -3.16480000      11.22040000      -9.46800000
C       -0.00050000      -1.23950000       0.04870000      -1.16030000      -7.98470000       3.99370000
C       -0.00050000       1.23950000       0.04870000      -1.16030000       7.98470000       3.99370000
S        0.64600000       0.00000000      -1.15460000     -13.11260000      -0.00000000       5.31320000
H        0.00290000       1.32500000       2.18500000       0.14310000      13.22840000      10.51720000
H        0.00290000      -1.32500000       2.18500000       0.14310000     -13.22840000      10.51720000
H        0.00770000       2.32640000      -0.18160000      10.73840000     -24.56010000      -7.69940000
H        0.00770000      -2.32640000      -0.18160000      10.73840000      24.56010000      -7.69940000
9
Lattice="50.0 0.0 0.0 0.0 50.0 0.0 0.0 0.0 50.0" Properties=species:S:1:pos:R:3:forces:R:3 energy=-955.879974 pbc="T T T"
C       -0.00200000       0.71930000       1.32040000      -0.38110000      -7.24400000      -2.20650000
C       -0.00200000      -0.71930000       1.32040000      -0.38110000       7.24400000      -2.20650000
C       -0.00040000      -1.24030000       0.04790000       0.90200000      10.70860000      22.46230000
C       -0.00040000       1.24030000       0.04790000       0.90200000     -10.70860000      22.46230000
S        0.64500000       0.00000000      -1.15550000     -11.28250000       0.00000000       2.10630000
H        0.00080000       1.35130000       2.19570000      -2.20960000     -14.09040000      -3.91240000
H        0.00080000      -1.35130000       2.19570000      -2.20960000      14.09040000      -3.91240000
H        0.03680000       2.30290000      -0.16040000       7.32980000      12.12850000     -17.39660000
H        0.03680000      -2.30290000      -0.16040000       7.32980000     -12.12850000     -17.39660000
9
Lattice="50.0 0.0 0.0 0.0 50.0 0.0 0.0 0.0 50.0" Properties=species:S:1:pos:R:3:forces:R:3 energy=-956.520322 pbc="T T T"
C       -0.00300000       0.71880000       1.31940000       1.51110000      -3.51140000       0.06190000
C       -0.00300000      -0.71880000       1.31940000       1.51110000       3.51140000       0.06190000
C        0.00020000      -1.23980000       0.04970000       3.34370000       1.21660000       3.36790000
C        0.00020000       1.23980000       0.04970000       3.34370000      -1.21660000       3.36790000
S        0.64340000      -0.00000000      -1.15610000      -7.53000000       0.00000000       3.65570000
H       -0.00630000       1.35880000       2.20060000      -2.45940000      -1.69550000      -1.15410000
H       -0.00630000      -1.35880000       2.20060000      -2.45940000       1.69550000      -1.15410000
H        0.07500000       2.29470000      -0.16370000       1.36950000       1.72820000      -4.10360000
H        0.07500000      -2.29470000      -0.16370000       1.36950000      -1.72820000      -4.10360000
9
Lattice="50.0 0.0 0.0 0.0 50.0 0.0 0.0 0.0 50.0" Properties=species:S:1:pos:R:3:forces:R:3 energy=-956.876392 pbc="T T T"
C       -0.00370000       0.71750000       1.31830000       1.35130000      -2.12980000       0.45110000
C       -0.00370000      -0.71750000       1.31830000       1.35130000       2.12980000       0.45110000
C        0.00150000      -1.23900000       0.05210000       2.01740000      -0.50340000       3.20870000
C        0.00150000       1.23900000       0.05210000       2.01740000       0.50340000       3.20870000
S        0.64120000       0.00000000      -1.15650000      -7.05820000       0.00000000       2.73900000
H       -0.01930000       1.36220000       2.20270000      -2.33310000      -0.75530000      -0.67840000
H       -0.01930000      -1.36220000       2.20270000      -2.33310000       0.75530000      -0.67840000
H        0.11640000       2.29060000      -0.17680000       2.49350000       1.00740000      -4.35090000
H        0.11640000      -2.29060000      -0.17680000       2.49350000      -1.00740000      -4.35090000
9
Lattice="50.0 0.0 0.0 0.0 50.0 0.0 0.0 0.0 50.0" Properties=species:S:1:pos:R:3:forces:R:3 energy=-956.577593 pbc="T T T"
C       -0.00420000       0.71600000       1.31740000      -0.39710000      -1.40000000       1.20830000
C       -0.00420000      -0.71600000       1.31740000      -0.39710000       1.40000000       1.20830000
C        0.00350000      -1.23840000       0.05490000       6.40770000      -2.59430000       0.06310000
C        0.00350000       1.23840000       0.05490000       6.40770000       2.59430000       0.06310000
S        0.63840000       0.00000000      -1.15660000      -6.34770000       0.00000000       2.36710000
H       -0.03780000       1.36550000       2.20330000      -1.41720000       1.62100000      -1.51040000
H       -0.03780000      -1.36550000       2.20330000      -1.41720000      -1.62100000      -1.51040000
H        0.16030000       2.28640000      -0.19660000      -1.41960000      -3.16030000      -0.94450000
H        0.16030000      -2.28640000      -0.19660000      -1.41960000       3.16030000      -0.94450000
9
Lattice="50.0 0.0 0.0 0.0 50.0 0.0 0.0 0.0 50.0" Properties=species:S:1:pos:R:3:forces:R:3 energy=-956.698251 pbc="T T T"
C       -0.00480000       0.71410000       1.31660000      -2.21670000      -1.87150000       2.85210000
C       -0.00480000      -0.71410000       1.31660000      -2.21670000       1.87150000       2.85210000
C        0.00690000      -1.23830000       0.05780000       7.36310000      -3.94770000      -0.42710000
C        0.00690000       1.23830000       0.05780000       7.36310000       3.94770000      -0.42710000
S        0.63510000       0.00000000      -1.15660000      -5.24800000       0.00000000       1.58350000
H       -0.05960000       1.37270000       2.20020000      -0.20610000       2.98450000      -2.89630000
H       -0.05960000      -1.37270000       2.20020000      -0.20610000      -2.98450000      -2.89630000
H        0.20070000       2.27460000      -0.21860000      -2.31640000      -4.20450000      -0.32050000
H        0.20070000      -2.27460000      -0.21860000      -2.31640000       4.20450000      -0.32050000
9
Lattice="50.0 0.0 0.0 0.0 50.0 0.0 0.0 0.0 50.0" Properties=species:S:1:pos:R:3:forces:R:3 energy=-956.709879 pbc="T T T"
C       -0.00570000       0.71220000       1.31640000      -2.63480000       1.12200000       4.05920000
C       -0.00570000      -0.71220000       1.31640000      -2.63480000      -1.12200000       4.05920000
C        0.01160000      -1.23870000       0.06040000       6.01960000       0.09020000      -0.35390000
C        0.01160000       1.23870000       0.06040000       6.01960000      -0.09020000      -0.35390000
S        0.63150000       0.00000000      -1.15640000      -4.46400000       0.00000000      -0.14990000
H       -0.08260000       1.38480000       2.19090000       0.27940000       2.15210000      -4.28190000
H       -0.08260000      -1.38480000       2.19090000       0.27940000      -2.15210000      -4.28190000
H        0.23740000       2.25670000      -0.24110000      -1.43220000       0.76770000       0.65160000
H        0.23740000      -2.25670000      -0.24110000      -1.43220000      -0.76770000       0.65160000
9
Lattice="50.0 0.0 0.0 0.0 50.0 0.0 0.0 0.0 50.0" Properties=species:S:1:pos:R:3:forces:R:3 energy=-956.872953 pbc="T T T"
C       -0.00710000       0.71040000       1.31700000      -4.28970000       2.56220000       6.36110000
C       -0.00710000      -0.71040000       1.31700000      -4.28970000      -2.56220000       6.36110000
C        0.01740000      -1.23900000       0.06300000       6.36550000      -0.00310000       1.32080000
C        0.01740000       1.23900000       0.06300000       6.36550000       0.00310000       1.32080000
S        0.62750000       0.00000000      -1.15630000      -2.41860000       0.00000000      -3.58880000
H       -0.10490000       1.40200000       2.17120000       1.40260000       3.29000000      -6.73960000
H       -0.10490000      -1.40200000       2.17120000       1.40260000      -3.29000000      -6.73960000
H        0.27060000       2.24060000      -0.26210000      -2.26910000       2.80180000       0.85200000
H        0.27060000      -2.24060000      -0.26210000      -2.26910000      -2.80180000       0.85200000
9
Lattice="50.0 0.0 0.0 0.0 50.0 0.0 0.0 0.0 50.0" Properties=species:S:1:pos:R:3:forces:R:3 energy=-957.025543 pbc="T T T"
C       -0.00910000       0.70910000       1.31830000      -0.54310000       5.94630000      -0.31490000
C       -0.00910000      -0.70910000       1.31830000      -0.54310000      -5.94630000      -0.31490000
C        0.02450000      -1.23920000       0.06570000       5.16880000       1.05310000      -0.16090000
C        0.02450000       1.23920000       0.06570000       5.16880000      -1.05310000      -0.16090000
S        0.62310000       0.00000000      -1.15620000      -6.35320000       0.00000000       2.83310000
H       -0.12660000       1.42300000       2.14140000      -0.86780000      -0.39400000      -2.34720000
H       -0.12660000      -1.42300000       2.14140000      -0.86780000       0.39400000      -2.34720000
H        0.30050000       2.22810000      -0.28110000      -0.58130000       0.19000000       1.40650000
H        0.30050000      -2.22810000      -0.28110000      -0.58130000      -0.19000000       1.40650000
9
Lattice="50.0 0.0 0.0 0.0 50.0 0.0 0.0 0.0 50.0" Properties=species:S:1:pos:R:3:forces:R:3 energy=-957.228272 pbc="T T T"
C       -0.01120000       0.70900000       1.31950000       0.03280000      10.41400000      -0.32680000
C       -0.01120000      -0.70900000       1.31950000       0.03280000     -10.41400000      -0.32680000
C        0.03260000      -1.23920000       0.06830000       4.71670000       1.14000000      -0.32870000
C        0.03260000       1.23920000       0.06830000       4.71670000      -1.14000000      -0.32870000
S        0.61830000       0.00000000      -1.15580000      -6.00680000       0.00000000       2.15160000
H       -0.15020000       1.44310000       2.10590000      -1.10580000      -1.39590000      -2.45870000
H       -0.15020000      -1.44310000       2.10590000      -1.10580000       1.39590000      -2.45870000
H        0.32900000       2.21590000      -0.29670000      -0.64040000       0.28570000       2.03840000
H        0.32900000      -2.21590000      -0.29670000      -0.64040000      -0.28570000       2.03840000
9
Lattice="50.0 0.0 0.0 0.0 50.0 0.0 0.0 0.0 50.0" Properties=species:S:1:pos:R:3:forces:R:3 energy=-956.886492 pbc="T T T"
C       -0.01330000       0.71020000       1.32070000      -0.81380000       3.38090000       0.93630000
C       -0.01330000      -0.71020000       1.32070000      -0.81380000      -3.38090000       0.93630000
C        0.04180000      -1.23900000       0.07060000       5.21940000       1.25900000      -3.94950000
C        0.04180000       1.23900000       0.07060000       5.21940000      -1.25900000      -3.94950000
S        0.61300000       0.00000000      -1.15530000      -5.61660000       0.00000000       0.47820000
H       -0.17630000       1.46070000       2.06790000      -1.28620000      -0.78650000       1.84520000
H       -0.17630000      -1.46070000       2.06790000      -1.28620000       0.78650000       1.84520000
H        0.35630000       2.20460000      -0.30890000      -0.31110000       0.29820000       0.92890000
H        0.35630000      -2.20460000      -0.30890000      -0.31110000      -0.29820000       0.92890000
9
Lattice="50.0 0.0 0.0 0.0 50.0 0.0 0.0 0.0 50.0" Properties=species:S:1:pos:R:3:forces:R:3 energy=-956.871525 pbc="T T T"
C       -0.01570000       0.71210000       1.32210000      -0.59740000       4.09110000       1.79890000
C       -0.01570000      -0.71210000       1.32210000      -0.59740000      -4.09110000       1.79890000
C        0.05200000      -1.23860000       0.07220000       4.69520000       2.00560000      -5.02560000
C        0.05200000       1.23860000       0.07220000       4.69520000      -2.00560000      -5.02560000
S        0.60730000       0.00000000      -1.15480000      -4.52110000       0.00000000      -2.98970000
H       -0.20550000       1.47640000       2.03430000      -1.80860000      -0.80990000       3.60510000
H       -0.20550000      -1.47640000       2.03430000      -1.80860000       0.80990000       3.60510000
H        0.38290000       2.19400000      -0.31900000      -0.02870000       0.27740000       1.11660000
H        0.38290000      -2.19400000      -0.31900000      -0.02870000      -0.27740000       1.11660000
9
Lattice="50.0 0.0 0.0 0.0 50.0 0.0 0.0 0.0 50.0" Properties=species:S:1:pos:R:3:forces:R:3 energy=-956.836014 pbc="T T T"
C       -0.01820000       0.71450000       1.32360000      -1.05100000       0.97020000       0.15610000
C       -0.01820000      -0.71450000       1.32360000      -1.05100000      -0.97020000       0.15610000
C        0.06320000      -1.23780000       0.07290000       4.96910000       2.63110000      -3.02710000
C        0.06320000       1.23780000       0.07290000       4.96910000      -2.63110000      -3.02710000
S        0.60120000       0.00000000      -1.15430000      -4.90670000       0.00000000      -2.30360000
H       -0.23820000       1.49040000       2.00710000      -1.37110000      -0.76930000       2.59100000
H       -0.23820000      -1.49040000       2.00710000      -1.37110000       0.76930000       2.59100000
H        0.40870000       2.18460000      -0.32610000      -0.09360000       0.90270000       1.43180000
H        0.40870000      -2.18460000      -0.32610000      -0.09360000      -0.90270000       1.43180000
9
Lattice="50.0 0.0 0.0 0.0 50.0 0.0 0.0 0.0 50.0" Properties=species:S:1:pos:R:3:forces:R:3 energy=-956.948195 pbc="T T T"
C       -0.02090000       0.71710000       1.32520000      -1.09030000       0.73850000       0.58480000
C       -0.02090000      -0.71710000       1.32520000      -1.09030000      -0.73850000       0.58480000
C        0.07540000      -1.23640000       0.07300000       3.87360000       3.56080000      -1.86050000
C        0.07540000       1.23640000       0.07300000       3.87360000      -3.56080000      -1.86050000
S        0.59470000       0.00000000      -1.15400000      -3.85660000       0.00000000      -6.60220000
H       -0.27410000       1.50250000       1.98620000      -1.57050000      -0.85970000       3.05500000
H       -0.27410000      -1.50250000       1.98620000      -1.57050000       0.85970000       3.05500000
H        0.43440000       2.17740000      -0.32990000       0.71540000       1.00600000       1.52170000
H        0.43440000      -2.17740000      -0.32990000       0.71540000      -1.00600000       1.52170000
9
Lattice="50.0 0.0 0.0 0.0 50.0 0.0 0.0 0.0 50.0" Properties=species:S:1:pos:R:3:forces:R:3 energy=-957.100907 pbc="T T T"
C       -0.02380000       0.71970000       1.32670000      -1.17330000       0.00770000      -1.51050000
C       -0.02380000      -0.71970000       1.32670000      -1.17330000      -0.00770000      -1.51050000
C        0.08850000      -1.23450000       0.07270000       3.66020000       2.45220000      -0.55530000
C        0.08850000       1.23450000       0.07270000       3.66020000      -2.45220000      -0.55530000
S        0.58780000       0.00000000      -1.15400000      -4.59330000       0.00000000      -4.71290000
H       -0.31340000       1.51250000       1.97180000      -1.27040000      -0.48830000       2.76580000
H       -0.31340000      -1.51250000       1.97180000      -1.27040000       0.48830000       2.76580000
H        0.46100000       2.17230000      -0.32990000       1.08020000       0.67760000       1.65650000
H        0.46100000      -2.17230000      -0.32990000       1.08020000      -0.67760000       1.65650000
9
Lattice="50.0 0.0 0.0 0.0 50.0 0.0 0.0 0.0 50.0" Properties=species:S:1:pos:R:3:forces:R:3 energy=-957.398588 pbc="T T T"
C       -0.02700000       0.72240000       1.32790000      -1.13210000      -0.37990000      -1.82260000
C       -0.02700000      -0.72240000       1.32790000      -1.13210000       0.37990000      -1.82260000
C        0.10240000      -1.23220000       0.07220000       1.92760000       3.24350000       1.96380000
C        0.10240000       1.23220000       0.07220000       1.92760000      -3.24350000       1.96380000
S        0.58070000       0.00000000      -1.15430000      -3.59070000       0.00000000      -9.19070000
H       -0.35570000       1.52130000       1.96400000      -1.34810000       0.31430000       2.91950000
H       -0.35570000      -1.52130000       1.96400000      -1.34810000      -0.31430000       2.91950000
H        0.49010000       2.16890000      -0.32590000       2.34790000       0.45940000       1.53470000
H        0.49010000      -2.16890000      -0.32590000       2.34790000      -0.45940000       1.53470000
9
Lattice="50.0 0.0 0.0 0.0 50.0 0.0 0.0 0.0 50.0" Properties=species:S:1:pos:R:3:forces:R:3 energy=-957.521597 pbc="T T T"
C       -0.03040000       0.72510000       1.32880000      -1.59550000      -0.34050000      -0.71940000
C       -0.03040000      -0.72510000       1.32880000      -1.59550000       0.34050000      -0.71940000
C        0.11690000      -1.22930000       0.07170000       4.35830000       2.33960000      -1.50880000
C        0.11690000       1.22930000       0.07170000       4.35830000      -2.33960000      -1.50880000
S        0.57320000       0.00000000      -1.15500000      -4.10690000      -0.00000000      -3.02020000
H       -0.40090000       1.52980000       1.96220000      -0.74730000       0.67420000       1.99980000
H       -0.40090000      -1.52980000       1.96220000      -0.74730000      -0.67420000       1.99980000
H        0.52210000       2.16700000      -0.31790000       0.03790000       0.37800000       1.73850000
H        0.52210000      -2.16700000      -0.31790000       0.03790000      -0.37800000       1.73850000
9
Lattice="50.0 0.0 0.0 0.0 50.0 0.0 0.0 0.0 50.0" Properties=species:S:1:pos:R:3:forces:R:3 energy=-957.831677 pbc="T T T"
C       -0.03420000       0.72760000       1.32960000      -2.15570000       0.53190000      -0.12750000
C       -0.03420000      -0.72760000       1.32960000      -2.15570000      -0.53190000      -0.12750000
C        0.13230000      -1.22590000       0.07090000       3.61730000       2.65720000       0.17700000
C        0.13230000       1.22590000       0.07090000       3.61730000      -2.65720000       0.17700000
S        0.56540000       0.00000000      -1.15590000      -2.60740000      -0.00000000      -5.57990000
H       -0.44780000       1.53990000       1.96520000      -0.25060000       1.80060000       1.58940000
H       -0.44780000      -1.53990000       1.96520000      -0.25060000      -1.80060000       1.58940000
H        0.55430000       2.16610000      -0.30580000       0.09280000       0.10170000       1.15100000
H        0.55430000      -2.16610000      -0.30580000       0.09280000      -0.10170000       1.15100000
9
Lattice="50.0 0.0 0.0 0.0 50.0 0.0 0.0 0.0 50.0" Properties=species:S:1:pos:R:3:forces:R:3 energy=-957.541194 pbc="T T T"
C       -0.03830000       0.73030000       1.33020000      -2.77830000       3.32980000       0.38040000
C       -0.03830000      -0.73030000       1.33020000      -2.77830000      -3.32980000       0.38040000
C        0.14850000      -1.22220000       0.07000000       3.99270000       0.98680000       0.21540000
C        0.14850000       1.22220000       0.07000000       3.99270000      -0.98680000       0.21540000
S        0.55730000       0.00000000      -1.15700000      -2.20730000       0.00000000      -0.34190000
H       -0.49510000       1.55150000       1.97100000       1.01830000      -0.71770000      -0.48370000
H       -0.49510000      -1.55150000       1.97100000       1.01830000       0.71770000      -0.48370000
H        0.58550000       2.16570000      -0.29090000      -1.12900000       0.43710000       0.05880000
H        0.58550000      -2.16570000      -0.29090000      -1.12900000      -0.43710000       0.05880000
9
Lattice="50.0 0.0 0.0 0.0 50.0 0.0 0.0 0.0 50.0" Properties=species:S:1:pos:R:3:forces:R:3 energy=-957.26902 pbc="T T T"
C       -0.04290000       0.73350000       1.33090000      -2.21640000       2.52570000      -0.39510000
C       -0.04290000      -0.73350000       1.33090000      -2.21640000      -2.52570000      -0.39510000
C        0.16550000      -1.21830000       0.06900000       2.77050000       0.31010000      -0.13890000
C        0.16550000       1.21830000       0.06900000       2.77050000      -0.31010000      -0.13890000
S        0.54910000       0.00000000      -1.15810000      -1.27790000      -0.00000000       2.14370000
H       -0.54050000       1.56090000       1.97680000       1.05930000      -0.55360000      -0.07920000
H       -0.54050000      -1.56090000       1.97680000       1.05930000       0.55360000      -0.07920000
H        0.61440000       2.16600000      -0.27530000      -0.97450000      -0.13390000      -0.45870000
H        0.61440000      -2.16600000      -0.27530000      -0.97450000       0.13390000      -0.45870000
9
Lattice="50.0 0.0 0.0 0.0 50.0 0.0 0.0 0.0 50.0" Properties=species:S:1:pos:R:3:forces:R:3 energy=-957.150397 pbc="T T T"
C       -0.04790000       0.73700000       1.33150000      -1.27890000       0.11050000      -1.07030000
C       -0.04790000      -0.73700000       1.33150000      -1.27890000      -0.11050000      -1.07030000
C        0.18310000      -1.21430000       0.06780000       2.24060000       0.19690000       0.72780000
C        0.18310000       1.21430000       0.06780000       2.24060000      -0.19690000       0.72780000
S        0.54070000       0.00000000      -1.15900000      -0.93630000      -0.00000000       2.16220000
H       -0.58380000       1.56780000       1.98220000       1.29880000      -0.75750000      -1.41690000
H       -0.58380000      -1.56780000       1.98220000       1.29880000       0.75750000      -1.41690000
H        0.64070000       2.16620000      -0.25930000      -1.79230000       0.10120000       0.67830000
H        0.64070000      -2.16620000      -0.25930000      -1.79230000      -0.10120000       0.67830000
9
Lattice="50.0 0.0 0.0 0.0 50.0 0.0 0.0 0.0 50.0" Properties=species:S:1:pos:R:3:forces:R:3 energy=-957.021165 pbc="T T T"
C       -0.05310000       0.74050000       1.33190000      -0.60930000      -0.21410000      -1.91170000
C       -0.05310000      -0.74050000       1.33190000      -0.60930000       0.21410000      -1.91170000
C        0.20110000      -1.21030000       0.06670000       1.08010000       0.21210000       2.84110000
C        0.20110000       1.21030000       0.06670000       1.08010000      -0.21210000       2.84110000
S        0.53230000       0.00000000      -1.15970000       0.28930000      -0.00000000       1.55480000
H       -0.62390000       1.57290000       1.98420000       1.64380000      -0.19780000      -2.28890000
H       -0.62390000      -1.57290000       1.98420000       1.64380000       0.19780000      -2.28890000
H        0.66260000       2.16670000      -0.24170000      -2.25920000      -0.01930000       0.58210000
H        0.66260000      -2.16670000      -0.24170000      -2.25920000       0.01930000       0.58210000
9
Lattice="50.0 0.0 0.0 0.0 50.0 0.0 0.0 0.0 50.0" Properties=species:S:1:pos:R:3:forces:R:3 energy=-956.963811 pbc="T T T"
C       -0.05850000       0.74400000       1.33200000       0.11150000       0.81940000      -1.34290000
C       -0.05850000      -0.74400000       1.33200000       0.11150000      -0.81940000      -1.34290000
C        0.21940000      -1.20630000       0.06590000       0.28680000      -0.72840000      -0.08950000
C        0.21940000       1.20630000       0.06590000       0.28680000       0.72840000      -0.08950000
S        0.52380000       0.00000000      -1.16020000      -0.37180000      -0.00000000       4.12470000
H       -0.66030000       1.57510000       1.98120000       1.53710000      -2.86020000      -2.31690000
H       -0.66030000      -1.57510000       1.98120000       1.53710000       2.86020000      -2.31690000
H        0.67980000       2.16670000      -0.22160000      -1.74950000      -0.84980000       1.68700000
H        0.67980000      -2.16670000      -0.22160000      -1.74950000       0.84980000       1.68700000
9
Lattice="50.0 0.0 0.0 0.0 50.0 0.0 0.0 0.0 50.0" Properties=species:S:1:pos:R:3:forces:R:3 energy=-956.970335 pbc="T T T"
C       -0.06390000       0.74770000       1.33180000       1.96820000       0.86050000      -2.99790000
C       -0.06390000      -0.74770000       1.33180000       1.96820000      -0.86050000      -2.99790000
C        0.23770000      -1.20250000       0.06500000      -1.62810000      -1.42090000       0.49230000
C        0.23770000       1.20250000       0.06500000      -1.62810000       1.42090000       0.49230000
S        0.51530000       0.00000000      -1.16050000       0.11850000      -0.00000000       5.47230000
H       -0.69300000       1.57040000       1.97260000       1.05190000      -4.43230000      -2.34470000
H       -0.69300000      -1.57040000       1.97260000       1.05190000       4.43230000      -2.34470000
H        0.69280000       2.16470000      -0.19740000      -1.45130000      -1.54470000       2.11420000
H        0.69280000      -2.16470000      -0.19740000      -1.45130000       1.54470000       2.11420000
9
Lattice="50.0 0.0 0.0 0.0 50.0 0.0 0.0 0.0 50.0" Properties=species:S:1:pos:R:3:forces:R:3 energy=-957.1919 pbc="T T T"
C       -0.06890000       0.75160000       1.33110000       5.03160000       0.38440000      -5.35220000
C       -0.06890000      -0.75160000       1.33110000       5.03160000      -0.38440000      -5.35220000
C        0.25580000      -1.19890000       0.06420000      -4.18430000      -2.60970000       0.62210000
C        0.25580000       1.19890000       0.06420000      -4.18430000       2.60970000       0.62210000
S        0.50690000      -0.00000000      -1.16030000       0.39050000      -0.00000000       7.69840000
H       -0.72320000       1.55520000       1.95850000      -0.03370000      -7.13660000      -2.25080000
H       -0.72320000      -1.55520000       1.95850000      -0.03370000       7.13660000      -2.25080000
H        0.70230000       2.15900000      -0.16820000      -1.00880000      -2.72470000       3.13170000
H        0.70230000      -2.15900000      -0.16820000      -1.00880000       2.72470000       3.13170000
9
Lattice="50.0 0.0 0.0 0.0 50.0 0.0 0.0 0.0 50.0" Properties=species:S:1:pos:R:3:forces:R:3 energy=-956.91874 pbc="T T T"
C       -0.07330000       0.75530000       1.32970000       1.91020000      -3.09290000      -2.30030000
C       -0.07330000      -0.75530000       1.32970000       1.91020000       3.09290000      -2.30030000
C        0.27330000      -1.19570000       0.06360000      -2.50250000      -0.69820000       2.69480000
C        0.27330000       1.19570000       0.06360000      -2.50250000       0.69820000       2.69480000
S        0.49840000      -0.00000000      -1.15970000       0.89500000       0.00000000       1.65260000
H       -0.75190000       1.52720000       1.93990000       0.77560000      -4.81150000      -2.05300000
H       -0.75190000      -1.52720000       1.93990000       0.77560000       4.81150000      -2.05300000
H        0.70930000       2.15020000      -0.13410000      -0.63080000       1.60960000       0.83210000
H        0.70930000      -2.15020000      -0.13410000      -0.63080000      -1.60960000       0.83210000
9
Lattice="50.0 0.0 0.0 0.0 50.0 0.0 0.0 0.0 50.0" Properties=species:S:1:pos:R:3:forces:R:3 energy=-957.269785 pbc="T T T"
C       -0.07740000       0.75840000       1.32780000       4.26980000      -4.29680000      -3.33550000
C       -0.07740000      -0.75840000       1.32780000       4.26980000       4.29680000      -3.33550000
C        0.29040000      -1.19270000       0.06350000      -5.03230000       0.16500000       5.75260000
C        0.29040000       1.19270000       0.06350000      -5.03230000      -0.16500000       5.75260000
S        0.49000000      -0.00000000      -1.15900000       1.61720000       0.00000000       0.54880000
H       -0.77880000       1.48760000       1.91640000       0.37490000      -5.17940000      -3.36990000
H       -0.77880000      -1.48760000       1.91640000       0.37490000       5.17940000      -3.36990000
H        0.71480000       2.14530000      -0.09810000      -0.42100000       2.64400000       0.67840000
H        0.71480000      -2.14530000      -0.09810000      -0.42100000      -2.64400000       0.67840000
9