9
Lattice="50.0 0.0 0.0 0.0 50.0 0.0 0.0 0.0 50.0" Properties=species:S:1:pos:R:3:momenta:R:3:forces:R:3 target_atoms="0 1 2 3 4 5 6 7 8" energy=-956.5536894987745 stress="0.0 0.0 0.0 0.0 0.0 0.0 0.0 0.0 0.0" pbc="T T T"
C        0.00000000       0.71495094       1.31902342       0.00000000       0.00000000       0.00000000       0.28172916       0.16926756      -0.61495650
C        0.00000000      -0.71495094       1.31902342       0.00000000       0.00000000       0.00000000       0.22230068      -0.52045303      -0.01392422
C        0.00000000      -1.24055335       0.05119100       0.00000000       0.00000000       0.00000000       5.02973122       0.50211232      -0.29583681
C        0.00000000       1.24055335       0.05119100       0.00000000       0.00000000       0.00000000       4.75651035      -0.89787557       0.31465780
S        0.64560000       0.00000000      -1.15285178       0.00000000       0.00000000       0.00000000     -10.07126895      -0.02486329       1.25434877
H        0.00000000       1.32194923       2.21441154       0.00000000       0.00000000       0.00000000      -0.26686253      -0.10223838      -0.33524411
H        0.00000000      -1.32194923       2.21441154       0.00000000       0.00000000       0.00000000      -0.30838379       0.31530932      -0.23919900
H        0.00000000       2.27909549      -0.24288695       0.00000000       0.00000000       0.00000000       0.47327739      -0.01382235       0.06933854
H        0.00000000      -2.27909549      -0.24288695       0.00000000       0.00000000       0.00000000       0.35468371       0.21489385       0.05357048
9
Lattice="50.0 0.0 0.0 0.0 50.0 0.0 0.0 0.0 50.0" Properties=species:S:1:pos:R:3:momenta:R:3:forces:R:3 target_atoms="1 0 6 5 4 2 3 7 8" energy=-956.4911033109183 stress="0.0 0.0 0.0 0.0 0.0 0.0 0.0 0.0 0.0" pbc="T T T"
C       -0.00018370       0.71660037       1.32002195      -0.10147303       0.55555354       0.37957339       0.27095984      -0.27711609      -1.62206797
C       -0.00018370      -0.71660037       1.32002195      -0.10147303      -0.55555354       0.37957339      -0.00837151       0.42418886      -0.66127750
C       -0.00016280      -1.23955374       0.05041822      -0.07672181       0.15958339      -0.39968152       5.07185104      -0.34399049       0.16996073
C       -0.00016280       1.23955374       0.05041822      -0.07672181      -0.15958339      -0.39968152       4.90146402       0.44877941      -0.21273155
S        0.64592171      -0.00000000      -1.15346938       0.29240166      -0.00000000      -0.74062581     -10.28081387      -0.29428283       0.83834424
H        0.00093765       1.31699548       2.19895330       0.02993901      -0.06310617      -0.39189257      -0.37685125       0.16548238       0.37109557
H        0.00093765      -1.31699548       2.19895330       0.02993901       0.06310617      -0.39189257      -0.19766488      -0.28737376       0.39973150
H       -0.00192498       2.31064497      -0.22029718       0.00205500       0.66931853       0.78231361       0.27299153      -1.22679168       0.30976139
H       -0.00192498      -2.31064497      -0.22029718       0.00205500      -0.66931853       0.78231361       0.36174036       1.24461457       0.16670674
9
Lattice="50.0 0.0 0.0 0.0 50.0 0.0 0.0 0.0 50.0" Properties=species:S:1:pos:R:3:momenta:R:3:forces:R:3 target_atoms="6 5 4 1 0 8 7 2 3" energy=-956.4883821723159 stress="0.0 0.0 0.0 0.0 0.0 0.0 0.0 0.0 0.0" pbc="T T T"
C       -0.00096191       0.71870391       1.32116595      -0.26803267       0.23889608       0.04726783       0.39687706      -0.45569876      -1.85392493
C       -0.00096191      -0.71870391       1.32116595      -0.26803267      -0.23889608       0.04726783      -0.01067414       0.36036893      -1.37175049
C       -0.00045691      -1.23952738       0.04870221      -0.10041891      -0.18963321      -0.32158746       4.54151469      -0.78327635      -0.09836887
C       -0.00045691       1.23952738       0.04870221      -0.10041891       0.18963321      -0.32158746       5.09774205       0.25486062       0.23190684
S        0.64599643       0.00000000      -1.15459325      -0.27322913       0.00000000      -0.60315474     -10.08479295       0.02634718       1.34636856
H        0.00288438       1.32498880       2.18496832       0.04346799       0.48890035      -0.02875937      -0.23163070       0.46286905       0.60313971
H        0.00288438      -1.32498880       2.18496832       0.04346799      -0.48890035      -0.02875937      -0.13857116      -0.72020719       0.76318575
H        0.00771736       2.32640387      -0.18162379       0.46159816      -0.27968167       0.60465636       0.31857153      -1.56180645      -0.16125189
H        0.00771736      -2.32640387      -0.18162379       0.46159816       0.27968167       0.60465636       0.21159152       1.65875761      -0.36172339
9
Lattice="50.0 0.0 0.0 0.0 50.0 0.0 0.0 0.0 50.0" Properties=species:S:1:pos:R:3:momenta:R:3:forces:R:3 target_atoms="5 6 4 8 7 0 1 3 2" energy=-956.5836220234011 stress="0.0 0.0 0.0 0.0 0.0 0.0 0.0 0.0 0.0" pbc="T T T"
C       -0.00199207       0.71931467       1.32038659      -0.26129151      -0.02852359      -0.24477962       0.03529292       0.49741697      -0.46731346
C       -0.00199207      -0.71931467       1.32038659      -0.26129151       0.02852359      -0.24477962       0.01799752      -0.01390468      -0.62740578
C       -0.00042290      -1.24027968       0.04794230       0.03046811       0.07899083       0.36575981       5.08171893       0.17563876       0.67989229
C       -0.00042290       1.24027968       0.04794230       0.03046811      -0.07899083       0.36575981       5.00872531       0.35483335      -0.15206894
S        0.64504649       0.00000000      -1.15545317      -0.89715429       0.00000000      -0.50961353      -9.68966579       0.13256506       1.25726954
H        0.00078401       1.35131292       2.19574611      -0.09736734       0.19425868       0.12512553      -0.32827385      -0.33642682      -0.03365734
H        0.00078401      -1.35131292       2.19574611      -0.09736734      -0.19425868       0.12512553      -0.08475539       0.29287335      -0.02865248
H        0.03679426       2.30294915      -0.16038493       0.77676788      -0.18354668       0.00870105       0.11369162      -0.60073316      -0.53677953
H        0.03679426      -2.30294915      -0.16038493       0.77676788       0.18354668       0.00870105       0.05557131       0.48267169      -0.53093284
9
Lattice="50.0 0.0 0.0 0.0 50.0 0.0 0.0 0.0 50.0" Properties=species:S:1:pos:R:3:momenta:R:3:forces:R:3 target_atoms="6 5 1 0 4 7 8 2 3" energy=-956.5972277164134 stress="0.0 0.0 0.0 0.0 0.0 0.0 0.0 0.0 0.0" pbc="T T T"
C       -0.00370416       0.71752349       1.31833457      -0.13905756      -0.35755095      -0.23831890      -0.34378531       0.84587243       0.04749969
C       -0.00370416      -0.71752349       1.31833457      -0.13905756       0.35755095      -0.23831890      -0.20319121      -0.57462103       0.07531173
C        0.00149494      -1.23903639       0.05213618       0.36616050       0.16953999       0.67431831       5.32964014       0.03710508       0.12004122
C        0.00149494       1.23903639       0.05213618       0.36616050      -0.16953999       0.67431831       5.56515321      -0.34629831       0.19337988
S        0.64115247       0.00000000      -1.15646278      -1.62919660       0.00000000      -0.17248835      -9.59114111      -0.31307966       1.11417735
H       -0.01934837       1.36219508       2.20270464      -0.32428681       0.05149020       0.02640843      -0.17103545      -0.67728005      -0.46216303
H       -0.01934837      -1.36219508       2.20270464      -0.32428681      -0.05149020       0.02640843      -0.05419783       0.64290439      -0.51459091
H        0.11640079       2.29063625      -0.17680968       0.91178217      -0.05917821      -0.37616366      -0.36686302      -0.29409977      -0.33546162
H        0.11640079      -2.29063625      -0.17680968       0.91178217       0.05917821      -0.37616366      -0.41599270       0.29750700      -0.29493589
9
Lattice="50.0 0.0 0.0 0.0 50.0 0.0 0.0 0.0 50.0" Properties=species:S:1:pos:R:3:momenta:R:3:forces:R:3 target_atoms="6 5 0 1 4 8 7 3 2" energy=-956.5836220234011 stress="0.0 0.0 0.0 0.0 0.0 0.0 0.0 0.0 0.0" pbc="T T T"
C       -0.00476667       0.71414099       1.31662256      -0.19410807      -0.49394506      -0.10963265      -0.55537889       0.91229946       0.73586521
C       -0.00476667      -0.71414099       1.31662256      -0.19410807       0.49394506      -0.10963265      -0.52873712      -0.73549497       0.73366434
C        0.00688282      -1.23834007       0.05775263       0.99698758      -0.07550330       0.67782910       5.51388541       0.07631498      -0.87621660
C        0.00688282       1.23834007       0.05775263       0.99698758       0.07550330       0.67782910       5.84987720      -0.00512504      -0.67824164
S        0.63513869       0.00000000      -1.15660405      -2.24756995       0.00000000       0.05090513      -9.73013496       0.52107523       1.44463613
H       -0.05956315       1.37271248       2.20021592      -0.45254513       0.22102541      -0.13375176       0.12262672      -1.07250491      -0.78274156
H       -0.05956315      -1.37271248       2.20021592      -0.45254513      -0.22102541      -0.13375176      -0.05742097       0.84267398      -0.87800608
H        0.20071161       2.27455193      -0.21859835       0.77345059      -0.34591377      -0.45989725      -1.01668112      -0.36557644       0.24730826
H        0.20071161      -2.27455193      -0.21859835       0.77345059       0.34591377      -0.45989725      -0.87623717       0.43491087      -0.00101333
9
Lattice="50.0 0.0 0.0 0.0 50.0 0.0 0.0 0.0 50.0" Properties=species:S:1:pos:R:3:momenta:R:3:forces:R:3 target_atoms="4 6 5 8 7 0 1 2 3" energy=-956.5781797461963 stress="0.0 0.0 0.0 0.0 0.0 0.0 0.0 0.0 0.0" pbc="T T T"
C       -0.00711909       0.71039524       1.31704040      -0.45769241      -0.36755183       0.30698284      -0.64720842       1.66417750       0.70443090
C       -0.00711909      -0.71039524       1.31704040      -0.45769241       0.36755183       0.30698284       0.17186026      -1.15186973       0.99497072
C        0.01743374      -1.23898707       0.06301739       1.59428341      -0.07697670       0.66750872       6.11017570       0.88662442      -1.78848006
C        0.01743374       1.23898707       0.06301739       1.59428341       0.07697670       0.66750872       5.79860940      -0.62692242      -1.74063183
S        0.62745236       0.00000000      -1.15630621      -2.67773388       0.00000000       0.00540045      -9.14721440      -0.03026878       2.25563412
H       -0.10494825       1.40198418       2.17123989      -0.42443577       0.43402527      -0.56800186       0.53005353      -1.10067392      -0.49073930
H       -0.10494825      -1.40198418       2.17123989      -0.42443577      -0.43402527      -0.56800186       0.34503127       1.29891113      -0.47787041
H        0.27064014       2.24064446      -0.26207086       0.62671172      -0.26030059      -0.40918992      -1.10384666       0.13185132       0.44153095
H        0.27064014      -2.24064446      -0.26207086       0.62671172       0.26030059      -0.40918992      -1.12356188      -0.06888346       0.24467802
9
Lattice="50.0 0.0 0.0 0.0 50.0 0.0 0.0 0.0 50.0" Properties=species:S:1:pos:R:3:momenta:R:3:forces:R:3 target_atoms="7 8 6 5 3 2 0 1" energy=-956.4149114300501 stress="0.0 0.0 0.0 0.0 0.0 0.0 0.0 0.0 0.0" pbc="T T T"
C       -0.01116649       0.70901517       1.31954013      -0.50743961       0.23300293       0.28990316      -0.33671632       1.19900834      -0.53436784
C       -0.01116649      -0.70901517       1.31954013      -0.50743961      -0.23300293       0.28990316      -0.02166643      -1.80166982       0.08539560
C        0.03263694      -1.23922510       0.06828798       2.10177481       0.02475105       0.63245291       5.54448154       0.91218119      -2.20454115
C        0.03263694       1.23922510       0.06828798       2.10177481      -0.02475105       0.63245291       5.72091065      -0.92743298      -2.37203311
S        0.61827149       0.00000000      -1.15584488      -3.30003818       0.00000000       0.27298112      -9.20804671      -0.15922123       2.12962948
H       -0.15024792       1.44313344       2.10591059      -0.51332674       0.37831805      -0.78842285       0.64500241      -0.93938861       0.75503021
H       -0.15024792      -1.44313344       2.10591059      -0.51332674      -0.37831805      -0.78842285       0.84328076       1.15201371       0.61846863
H        0.32901216       2.21592773      -0.29666647       0.56901064      -0.24196195      -0.27042378      -1.36627918       0.47662805       0.69785916
H        0.32901216      -2.21592773      -0.29666647       0.56901064       0.24196195      -0.27042378      -1.40407954      -0.40823825       0.81592937
9
Lattice="50.0 0.0 0.0 0.0 50.0 0.0 0.0 0.0 50.0" Properties=species:S:1:pos:R:3:momenta:R:3:forces:R:3 target_atoms="8 7 0 1 2 3 4" energy=-956.1645666786259 stress="0.0 0.0 0.0 0.0 0.0 0.0 0.0 0.0 0.0" pbc="T T T"
C       -0.01568526       0.71207126       1.32212123      -0.58720139       0.55718146       0.38277902      -0.61355782       0.32752206      -1.39532236
C       -0.01568526      -0.71207126       1.32212123      -0.58720139      -0.55718146       0.38277902      -0.23221280      -0.29552519      -1.32228246
C        0.05196882      -1.23858427       0.07217415       2.60733614       0.15852822       0.25479316       5.29945539       1.50411089      -2.96533577
C        0.05196882       1.23858427       0.07217415       2.60733614      -0.15852822       0.25479316       5.04918419      -1.65791429      -2.56931901
S        0.60725920       0.00000000      -1.15478424      -3.84322021       0.00000000       0.28450369      -8.72987291      -0.30532058       1.73776248
H       -0.20551347       1.47644515       2.03426796      -0.64313111       0.30264059      -0.60135247       0.75472682      -0.32535822       2.08258343
H       -0.20551347      -1.47644515       2.03426796      -0.64313111      -0.30264059      -0.60135247       0.73773183       0.52472620       1.97238080
H        0.38289562       2.19403741      -0.31895285       0.54460647      -0.21050385      -0.17847156      -1.72038696       0.57070781       0.99126833
H        0.38289562      -2.19403741      -0.31895285       0.54460647       0.21050385      -0.17847156      -1.53355516      -0.63757707       0.99102665
9
Lattice="50.0 0.0 0.0 0.0 50.0 0.0 0.0 0.0 50.0" Properties=species:S:1:pos:R:3:momenta:R:3:forces:R:3 target_atoms="0 1 3 2 6 5 4" energy=-955.9958560852748 stress="0.0 0.0 0.0 0.0 0.0 0.0 0.0 0.0 0.0" pbc="T T T"
C       -0.02090656       0.71705570       1.32520104      -0.69103297       0.65144915       0.39478718       0.38163298      -0.26664347      -1.88462390
C       -0.02090656      -0.71705570       1.32520104      -0.69103297      -0.65144915       0.39478718       0.14968707      -0.20822595      -2.20051480
C        0.07542011      -1.23642472       0.07299704       3.08472598       0.41611743      -0.01940188       4.27671676       1.16604165      -2.50736570
C        0.07542011       1.23642472       0.07299704       3.08472598      -0.41611743      -0.01940188       5.05076285      -1.44553087      -2.44175629
S        0.59467767       0.00000000      -1.15399711      -4.32164686       0.00000000       0.03821554      -7.47820837      -0.13702695       2.05706780
H       -0.27413325       1.50248110       1.98619274      -0.77640822       0.22717527      -0.35469606       1.08039306      -0.35644029       2.78364618
H       -0.27413325      -1.50248110       1.98619274      -0.77640822      -0.22717527      -0.35469606       0.98055197       0.40808090       2.60299532
H        0.43437409       2.17735020      -0.32989864       0.54353864      -0.12437318      -0.03979701      -1.91657757       0.82888258       1.10070991
H        0.43437409      -2.17735020      -0.32989864       0.54353864       0.12437318      -0.03979701      -1.89913007      -1.08198714       1.04805372
9
Lattice="50.0 0.0 0.0 0.0 50.0 0.0 0.0 0.0 50.0" Properties=species:S:1:pos:R:3:momenta:R:3:forces:R:3 target_atoms="3 2 5 6 8 7" energy=-955.7645593040677 stress="0.0 0.0 0.0 0.0 0.0 0.0 0.0 0.0 0.0" pbc="T T T"
C       -0.02701686       0.72244545       1.32787905      -0.80376809       0.64990556       0.24561173      -0.35307728      -0.58333707      -1.65934897
C       -0.02701686      -0.72244545       1.32787905      -0.80376809      -0.64990556       0.24561173       0.24980377       0.29905480      -1.01950933
C        0.10238782      -1.23218115       0.07222994       3.43477746       0.65876416      -0.05921293       4.06378826       1.50430115      -2.90935257
C        0.10238782       1.23218115       0.07222994       3.43477746      -0.65876416      -0.05921293       4.25817396      -1.07758027      -2.91810975
S        0.58067396       0.00000000      -1.15428834      -4.77159891       0.00000000      -0.43648282      -7.59761041      -0.22799156       2.03210753
H       -0.35570789       1.52134323       1.96403301      -0.90141499       0.18928959      -0.08779036       1.41717674      -0.31417957       2.59244351
H       -0.35570789      -1.52134323       1.96403301      -0.90141499      -0.18928959      -0.08779036       1.37681042       0.62860392       2.45205613
H        0.49011631       2.16887781      -0.32587726       0.65620508      -0.05902103       0.11963298      -1.97413429       0.93414356       0.90644763
H        0.49011631      -2.16887781      -0.32587726       0.65620508       0.05902103       0.11963298      -1.91455154      -0.67621561       0.94536899
9
Lattice="50.0 0.0 0.0 0.0 50.0 0.0 0.0 0.0 50.0" Properties=species:S:1:pos:R:3:momenta:R:3:forces:R:3 target_atoms="0 1 4" energy=-955.5686373246923 stress="0.0 0.0 0.0 0.0 0.0 0.0 0.0 0.0 0.0" pbc="T T T"
C       -0.03415246       0.72762122       1.32955225      -0.96464299       0.63758447       0.18379904       0.04448904       0.36943001      -0.79897037
C       -0.03415246      -0.72762122       1.32955225      -0.96464299      -0.63758447       0.18379903      -0.12147281      -0.22926786      -1.45831440
C        0.13231834      -1.22593227       0.07094909       3.85569787       0.88680520      -0.18932423       3.23700884       0.35270756      -2.32015852
C        0.13231834       1.22593227       0.07094909       3.85569787      -0.88680520      -0.18932423       3.36038066      -0.59758098      -2.84268386
S        0.56535482       0.00000000      -1.15591436      -5.16485055       0.00000000      -0.74190316      -6.47717499      -0.08190713       2.35775320
H       -0.44784727       1.53990553       1.96517972      -0.97003509       0.25125700       0.09990743       2.37173486      -1.48379917       1.73185408
H       -0.44784727      -1.53990553       1.96517972      -0.97003509      -0.25125700       0.09990743       2.17609960       1.32880792       1.51671444
H        0.55425587       2.16612420      -0.30584078       0.66140549      -0.01647920       0.27656935      -2.36948771       0.54461625       0.83948067
H        0.55425587      -2.16612420      -0.30584078       0.66140548       0.01647920       0.27656935      -2.25080558      -0.63369470       0.97206733
9
Lattice="50.0 0.0 0.0 0.0 50.0 0.0 0.0 0.0 50.0" Properties=species:S:1:pos:R:3:momenta:R:3:forces:R:3 target_atoms="8 7 3 2 5 6" energy=-955.4325803945704 stress="0.0 0.0 0.0 0.0 0.0 0.0 0.0 0.0 0.0" pbc="T T T"
C       -0.03828552       0.73032329       1.33023864      -1.07899135       0.74257816       0.17720280      -0.46034423       0.34561645      -0.34839427
C       -0.03828552      -0.73032329       1.33023864      -1.07899135      -0.74257816       0.17720280      -0.35886226      -0.54703823      -0.34700177
C        0.14853830      -1.22217495       0.07002185       4.06473899       0.94310838      -0.22147095       2.72569351       0.23554443      -2.08420323
C        0.14853830       1.22217495       0.07002185       4.06473899      -0.94310838      -0.22147095       2.91694761      -0.22099096      -2.56679419
S        0.55730328       0.00000000      -1.15703855      -5.31004266       0.00000000      -0.74223459      -6.06780392       0.26742097       2.52845903
H       -0.49507808       1.55145942       1.97095292      -0.94435527       0.21950755       0.10661042       2.64168014      -1.80377813       1.31990162
H       -0.49507808      -1.55145942       1.97095292      -0.94435527      -0.21950755       0.10661042       2.62035541       2.00077092       1.13921476
H        0.58550500       2.16573198      -0.29086648       0.61362896       0.00268461       0.30877502      -2.37182742       0.51021746       0.48188030
H        0.58550500      -2.16573198      -0.29086648       0.61362896      -0.00268461       0.30877502      -2.48488397      -0.62959122       0.83254898
9
Lattice="50.0 0.0 0.0 0.0 50.0 0.0 0.0 0.0 50.0" Properties=species:S:1:pos:R:3:momenta:R:3:forces:R:3 target_atoms="1 0" energy=-955.1795145045439 stress="0.0 0.0 0.0 0.0 0.0 0.0 0.0 0.0 0.0" pbc="T T T"
C       -0.04289116       0.73349186       1.33091308      -1.18076434       0.83691847       0.15523532      -0.67940892       0.01053499      -0.45392933
C       -0.04289116      -0.73349186       1.33091308      -1.18076434      -0.83691847       0.15523532      -0.21024735      -0.18766998      -0.76371026
C        0.16551866      -1.21825778       0.06895995       4.22068633       0.96558208      -0.26310686       2.37134405      -0.02309092      -2.45877699
C        0.16551866       1.21825778       0.06895995       4.22068633      -0.96558208      -0.26310686       2.51598918       0.11558189      -2.51560866
S        0.54907234       0.00000000      -1.15809979      -5.40432010      -0.00000000      -0.64010851      -5.64578301      -0.28970935       2.22909519
H       -0.54053042       1.56086298       1.97684351      -0.90684626       0.17940381       0.11895403       3.01470096      -2.46916939       0.77470944
H       -0.54053042      -1.56086298       1.97684351      -0.90684626      -0.17940381       0.11895403       3.13560966       2.20455658       0.69894416
H        0.61439882       2.16595111      -0.27526345       0.56908432       0.00120970       0.30897176      -2.44281044       0.35848174       0.56719054
H        0.61439882      -2.16595111      -0.27526345       0.56908432      -0.00120970       0.30897176      -2.46832607      -0.29010582       0.60511432
9
Lattice="50.0 0.0 0.0 0.0 50.0 0.0 0.0 0.0 50.0" Properties=species:S:1:pos:R:3:momenta:R:3:forces:R:3 target_atoms="1 0 8 7 6 5 4 2 3" energy=-954.5645371803931 stress="0.0 0.0 0.0 0.0 0.0 0.0 0.0 0.0 0.0" pbc="T T T"
C       -0.05313207       0.74047590       1.33186214      -1.29860834       0.85145138       0.04282088       0.03043878      -0.28978186       0.08700562
C       -0.05313207      -0.74047590       1.33186214      -1.29860834      -0.85145138       0.04282088      -0.11003602      -0.10357381      -0.48826487
C        0.20111122      -1.21029543       0.06671596       4.43373280       0.98366285      -0.18675048       0.93780481      -0.58887523      -1.47581333
C        0.20111122       1.21029543       0.06671596       4.43373280      -0.98366285      -0.18675048       1.60002333       0.87603662      -1.31552560
S        0.53228461       0.00000000      -1.15970505      -5.49518462      -0.00000000      -0.43265889      -4.59200088       0.18490398       1.85830609
H       -0.62386668       1.57285143       1.98420872      -0.78293210       0.09956595      -0.01542021       3.64969150      -2.67592210       0.30934076
H       -0.62386669      -1.57285143       1.98420872      -0.78293210      -0.09956595      -0.01542021       3.69956576       2.67884287       0.09714554
H        0.66262467       2.16673606      -0.24167062       0.39539994       0.01006676       0.37567925      -2.64356219       0.48259507       0.14160557
H        0.66262467      -2.16673606      -0.24167062       0.39539995      -0.01006676       0.37567925      -2.56928301      -0.42368184       0.38876574
9
Lattice="50.0 0.0 0.0 0.0 50.0 0.0 0.0 0.0 50.0" Properties=species:S:1:pos:R:3:momenta:R:3:forces:R:3 target_atoms="7 8 0 1 5 6 4 2 3" energy=-953.8978582227962 stress="0.0 0.0 0.0 0.0 0.0 0.0 0.0 0.0 0.0" pbc="T T T"
C       -0.06886370       0.75155272       1.33108919      -1.09259430       0.95399670      -0.31458694       1.17326131      -1.59964795      -0.18669604
C       -0.06886370      -0.75155272       1.33108919      -1.09259428      -0.95399672      -0.31458695       0.64547035       1.60598829      -0.47342497
C        0.25576797      -1.19890845       0.06424449       4.30418291       0.80571788      -0.17153885      -0.52333266      -0.61179404      -0.16865461
C        0.25576797       1.19890845       0.06424449       4.30418291      -0.80571788      -0.17153885      -0.56730881       0.35064862      -0.83048695
S        0.50686820      -0.00000000      -1.16027589      -5.52300877      -0.00000000       0.31153803      -2.91533810       0.20947499       1.25931100
H       -0.72317285       1.55519539       1.95845745      -0.62060461      -0.48799101      -0.34614806       4.05637320      -2.20199576       0.41279270
H       -0.72317285      -1.55519539       1.95845745      -0.62060461       0.48799102      -0.34614806       4.13350116       2.19890529       0.39759079
H        0.70230340       2.15897774      -0.16818202       0.17052038      -0.18447603       0.67650484      -2.14039212       1.03283279      -0.44318571
H        0.70230340      -2.15897774      -0.16818202       0.17052038       0.18447603       0.67650484      -2.20794529      -0.83044067      -0.48689858
9
Lattice="50.0 0.0 0.0 0.0 50.0 0.0 0.0 0.0 50.0" Properties=species:S:1:pos:R:3:momenta:R:3:forces:R:3 target_atoms="4 7 8 5 6 0 1 3 2" energy=-953.3590727795137 stress="0.0 0.0 0.0 0.0 0.0 0.0 0.0 0.0 0.0" pbc="T T T"
C       -0.07742055       0.75841220       1.32784586      -0.89455639       0.65729729      -0.53498581       0.45035549      -3.91388265      -0.98936571
C       -0.07742055      -0.75841220       1.32784586      -0.89455636      -0.65729732      -0.53498584       1.21204383       4.05129270      -0.74942006
C        0.29040005      -1.19267947       0.06349003       4.04971217       0.74857466       0.11518783      -2.34433204       0.66995240       0.61741448
C        0.29040005       1.19267947       0.06349003       4.04971216      -0.74857464       0.11518784      -2.53491765       0.14286079       0.67181902
S        0.49004005      -0.00000000      -1.15904436      -5.43079577      -0.00000000       0.45601450      -1.67324321       0.02537170       1.07477262
H       -0.77880055       1.48759328       1.91644199      -0.54259514      -0.93907339      -0.56432925       3.74255975      -1.05410095       1.20312725
H       -0.77880055      -1.48759328       1.91644198      -0.54259515       0.93907340      -0.56432925       3.80297039       1.18150941       1.41808691
H        0.71484146       2.14529468      -0.09811488       0.10283725      -0.03596034       0.75611998      -1.69450623       1.90676110      -1.27264988
H        0.71484146      -2.14529468      -0.09811488       0.10283724       0.03596033       0.75611999      -1.64049764      -2.16985182      -1.15632288
9
Lattice="50.0 0.0 0.0 0.0 50.0 0.0 0.0 0.0 50.0" Properties=species:S:1:pos:R:3:momenta:R:3:forces:R:3 target_atoms="5 6 7 8 0 1 4 3 2" energy=-952.5862694164217 stress="0.0 0.0 0.0 0.0 0.0 0.0 0.0 0.0 0.0" pbc="T T T"
C       -0.08475753       0.76226155       1.32259154      -0.93039933       0.28503186      -0.77032878       3.18142158      -5.78693659      -2.59250522
C       -0.08475753      -0.76226155       1.32259154      -0.93039929      -0.28503193      -0.77032883       2.91580604       6.34018661      -2.60559728
C        0.32251437      -1.18597226       0.06554750       3.75995878       0.98841546       0.49460958      -3.44395181      -0.49292422       0.96440030
C        0.32251437       1.18597226       0.06554750       3.75995874      -0.98841542       0.49460962      -3.42518789       0.25150122       0.71526553
S        0.47387640      -0.00000000      -1.15755538      -5.02327277       0.00000001       0.40236150      -0.76889360      -0.14140297       0.47833115
H       -0.82260386       1.39804706       1.85796703      -0.33227433      -0.70514907      -0.60380985       3.23139869       0.72336964       2.89463043
H       -0.82260386      -1.39804706       1.85796703      -0.33227434       0.70514912      -0.60380984       3.09840580      -0.62273666       2.66753516
H        0.72045299       2.15812014      -0.02522615       0.01435128       0.31416205       0.67834828      -1.68049886       2.24841446      -1.86454358
H        0.72045299      -2.15812014      -0.02522615       0.01435126      -0.31416207       0.67834832      -1.65294692      -2.15007490      -1.51596882
9
Lattice="50.0 0.0 0.0 0.0 50.0 0.0 0.0 0.0 50.0" Properties=species:S:1:pos:R:3:momenta:R:3:forces:R:3 target_atoms="7 8 0 1 5 6 4 3 2" energy=-951.3454302137105 stress="0.0 0.0 0.0 0.0 0.0 0.0 0.0 0.0 0.0" pbc="T T T"
C       -0.09565252       0.76109260       1.31013397      -0.88090163      -0.39941279      -1.28404759       4.76755581      -7.93817876      -2.92937118
C       -0.09565251      -0.76109260       1.31013397      -0.88090167       0.39941265      -1.28404775       5.20427314       7.32836447      -2.63493871
C        0.36670185      -1.17516921       0.07370072       3.49177606       0.62099267       0.85019170      -4.68642722      -3.10003074       0.55202617